
                                 *****************
                                 * O   R   C   A *
                                 *****************

                                            #,                                       
                                            ###                                      
                                            ####                                     
                                            #####                                    
                                            ######                                   
                                           ########,                                 
                                     ,,################,,,,,                         
                               ,,#################################,,                 
                          ,,##########################################,,             
                       ,#########################################, ''#####,          
                    ,#############################################,,   '####,        
                  ,##################################################,,,,####,       
                ,###########''''           ''''###############################       
              ,#####''   ,,,,##########,,,,          '''####'''          '####       
            ,##' ,,,,###########################,,,                        '##       
           ' ,,###''''                  '''############,,,                           
         ,,##''                                '''############,,,,        ,,,,,,###''
      ,#''                                            '''#######################'''  
     '                                                          ''''####''''         
             ,#######,   #######,   ,#######,      ##                                
            ,#'     '#,  ##    ##  ,#'     '#,    #''#        ,####,    ,#,          
            ##       ##  ##   ,#'  ##            #'  '#       #'       ,# #          
            ##       ##  #######   ##           ,######,      #####,      #          
            '#,     ,#'  ##    ##  '#,     ,#' ,#      #,     #,   #      #          
             '#######'   ##     ##  '#######'  #'      '#     '####' #    #          



                #########################################################
                #                        -***-                          #
                #          Department of theory and spectroscopy        #
                #                                                       #
                #                      Frank Neese                      #
                #                                                       #
                #     Directorship, Architecture, Infrastructure        #
                #                    SHARK, DRIVERS                     #
                #        Core code/Algorithms in most modules           #
                #                                                       #
                #        Max Planck Institute fuer Kohlenforschung      #
                #                Kaiser Wilhelm Platz 1                 #
                #                 D-45470 Muelheim/Ruhr                 #
                #                      Germany                          #
                #                                                       #
                #                  All rights reserved                  #
                #                        -***-                          #
                #########################################################


                         Program Version 6.1.0  -  RELEASE   -


 With contributions from (in alphabetic order):
[Max-Planck-Institut fuer Kohlenforschung]                               
  Daniel Aravena         : Magnetic Suceptibility                        
  Michael Atanasov       : Ab Initio Ligand Field Theory (pilot matlab implementation)
  Alexander A. Auer      : GIAO ZORA, VPT2 properties, NMR spectrum      
  Ute Becker             : All parallelization in ORCA, NUMFREQ, NUMCALC 
  Giovanni Bistoni       : ED, misc. LED, open-shell LED, HFLD           
  Dmytro Bykov           : pre 5.0 version of the SCF Hessian            
  Marcos Casanova-Páez   : Triplet and SCS-CIS(D). UHF-(DLPNO)-IP/EA/STEOM-CCSD. UHF-CVS-IP/STEOM-CCSD   
  Vijay G. Chilkuri      : MRCI spin determinant printing, contributions to CSF-ICE 
  Pauline Colinet        : FMM embedding                                 
  Dipayan Datta          : RHF DLPNO-CCSD density                        
  Achintya Kumar Dutta   : EOM-CC, STEOM-CC                              
  Nicolas Foglia         : Exact transition moments, OPA infrastructure, MCD improvements    
  Dmitry Ganyushin       : Spin-Orbit,Spin-Spin,Magnetic field MRCI      
  Miquel Garcia-Rates    : C-PCM and meta-GGA Hessian, CCSD/C-PCM, Gaussian charge scheme 
  Tiago L. C. Gouveia    : GS-ROHF, GS-ROCIS                             
  Yang Guo               : DLPNO-NEVPT2, F12-NEVPT2, CIM, IAO-localization        
  Andreas Hansen         : Spin unrestricted coupled pair/coupled cluster methods 
  Ingolf Harden          : AUTO-CI MPn and infrastructure                
  Benjamin Helmich-Paris : MC-RPA, TRAH-(SCF,CASSCF), AVAS, COSX integrals, SCF dyn. polar., MC-PDFT, srDFT 
  Lee Huntington         : MR-EOM, pCC                                   
  Robert Izsak           : Overlap fitted RIJCOSX, COSX-SCS-MP3, EOM     
  Riya Kayal             : Wick's Theorem for AUTO-CI, AUTO-CI UHF-CCSDT 
  Emily Kempfer          : AUTO-CI RHF CISDT and CCSDT, approximate NEVPT4
  Christian Kollmar      : KDIIS, OOCD, Brueckner-CCSD(T), CCSD density, CASPT2, CASPT2-K, improved NEVPT2 
  Axel Koslowski         : Symmetry handling                             
  Simone Kossmann        : meta-GGA functionals, TD-DFT gradient, OOMP2, (MP2 Hessian; deprecated post 5.0) 
  Lucas Lang             : DCDCAS, Hyperfine gauge corrections, ICE-SOC+SSC
  Marvin Lechner         : AUTO-CI (C++ implementation), FIC-MRCC        
  Spencer Leger          : CASSCF response                               
  Dagmar Lenk            : GEPOL surface, SMD, ORCA-2-JSON               
  Dimitrios Liakos       : Extrapolation schemes; Compound Job, Property file
  Dimitrios Manganas     : Further ROCIS development; embedding schemes. LFT, Crystal Embedding 
  Dimitrios Pantazis     : SARC Basis sets                               
  Anastasios Papadopoulos: AUTO-CI, single reference methods and gradients 
  Taras Petrenko         : pre 6.0 DFT Hessian and TD-DFT gradient,  ECA, NRVS 
  Petra Pikulova         : Analytic Raman intensities                    
  Peter Pinski           : DLPNO-MP2, DLPNO-MP2 Gradient                 
  Shashank Vittal Rao    : ES-AILFT, MagRelax                            
  Christoph Reimann      : Effective Core Potentials                     
  Marius Retegan         : Local ZFS, SOC                                
  Christoph Riplinger    : Optimizer, TS searches, QM/MM, DLPNO-CCSD(T), (RO)-DLPNO pert. Triples 
  Michael Roemelt        : Original ROCIS implementation, recursive CI coupling coefficients
  Masaaki Saitow         : Open-shell DLPNO-CCSD energy and density      
  Barbara Sandhoefer     : DKH picture change effects                    
  Yorick L. A. Schmerwitz: GMF and freeze-and-release deltaSCF, NEB S-IDPP initial path                    
  Kantharuban Sivalingam : CASSCF convergence/infrastructure, NEVPT2, NEVPT3, NEVPT4(SD), FIC-MRCI and CEPA variants
  Bernardo de Souza      : ESD, SOC TD-DFT                               
  Georgi L. Stoychev     : AutoAux, RI-MP2 NMR, DLPNO-MP2 response, X2C  
  Van Anh Tran           : RI-MP2 g-tensors                              
  Willem Van den Heuvel  : Paramagnetic NMR                              
  Zikuan Wang            : NOTCH, Electric field optimization            
  Frank Wennmohs         : Technical directorship and infrastructure     
  Hang Xu                : AUTO-CI-Response properties                   
                                                                         
[FACCTs GmbH]                                                            
  Markus Bursch, Nicolas Foglia, Miquel Garcia-Rates, Ingolf Harden, Hagen Neugebauer, Anastasios Papadopoulos, 
  Christoph Riplinger, Bernardo de Souza, Georgi L. Stoychev                                                    
                                                                 
  APM, various basis sets, CI-OPT, improved COSX, DLPNO-Multilevel,           
  DOCKER, DRACO, updates on ESD, Fragmentator, GOAT, IRC, LR-CPCM, L-BFGS, MBIS, meta-GGA TD-DFT gradient, ML-optimized integration grids, 
  MM, NACMEs, nearIR, NEB, NEB-TS, NL-DFT gradient (VV10), 2- and 3-layer-ONIOM, interface openCOSMO-RS, QMMM,   
  Crystal-QMMM, RESP, rigid body optimization, SF, symmetry and pop. for TD-DFT, various functionals, SOLVATOR                                   
                                                                         
[Other institutions]                                                     
  V. Asgeirsson          : NEB                                           
  Christoph Bannwarth    : sTDA-DFT, sTD-DFT, PBEh-3c, B97-3c, D3        
  Giovanni Bistoni       : ETS/NOCV, ADLD/ADEX, COVALED                  
  Martin Brehm           : Molecular dynamics                            
  Ronald Cardenas        : ETS/NOCV                                      
  Martina Colucci        : COVALED                                       
  Sebastian Ehlert       : rSCAN, r2SCAN, r2SCAN-3c, D4, dhf basis sets  
  Marvin Friede          : D4 for Fr, Ra, Ac-Lr                          
  Lars Goerigk           : TD-DFT with DH, B97 family of functionals     
  Stefan Grimme          : VdW corrections, initial TS optimization, DFT functionals, gCP, sTDA/sTD-DF 
  Waldemar Hujo          : DFT-NL                                        
  H. Jonsson             : NEB                                           
  Holger Kruse           : gCP                                           
  Marcel Mueller         : wB97X-3c, vDZP basis set                      
  Hagen Neugebauer       : wr2SCAN, Native XTB                           
  Gianluca Regni         : ADLD/ADEX                                     
  Tobias Risthaus        : pre 6.0 range-separated hybrid DFT and stability analysis
  Lukas Wittmann         : regularized MP2, r2SCAN double-hybrids, wr2SCAN        
                                                                         
We gratefully acknowledge several colleagues who have allowed us to      
interface, adapt or use parts of their codes:                            
  Ed Valeev, F. Pavosevic, A. Kumar             : LibInt (2-el integral package), F12 methods 
  Garnet Chan, S. Sharma, J. Yang, R. Olivares  : DMRG                   
  Ulf Ekstrom                                   : XCFun DFT Library      
  Mihaly Kallay                                 : mrcc  (arbitrary order and MRCC methods)
  Frank Weinhold                                : gennbo (NPA and NBO analysis)           
  Simon Mueller                                 : openCOSMO-RS                            
  Christopher J. Cramer and Donald G. Truhlar   : smd solvation model                     
  S Lehtola, MJT Oliveira, MAL Marques          : LibXC Library                           
  Liviu Ungur et al                             : ANISO software                          


 Your calculation uses the libint2 library for the computation of 2-el integrals
 For citations please refer to: http://libint.valeyev.net

 Your ORCA version has been built with support for libXC version: 7.0.0
 For citations please refer to: https://libxc.gitlab.io

 This ORCA versions uses:
   CBLAS   interface :  Fast vector & matrix operations
   LAPACKE interface :  Fast linear algebra routines
   Shared memory     :  Shared parallel matrices


  ***********************************
  * Starting time: Fri Nov 14 01:06:57 2025
  * Host name:     PC_DF0114514
  * Process ID:    6240
  * Working dir.:  C:\Users\kgb14\Desktop\? ?? (9)
  ***********************************

NOTE: MaxCore=3500 MB was set to SCF,MP2,MDCI,CIPSI,MRCI,RASCI and CIS
      => If you want to overwrite this, your respective input block should be placed after the MaxCore statement
Your calculation utilizes the atom-pairwise dispersion correction
with the Becke-Johnson damping scheme (D3BJ)


Warning: RI is on but no J-basis has been assigned. Assigning Def2/J (nothing to worry about!)
================================================================================

cite the ECPs for Hf [Def2-ECP] as follows:
Ce-Yb(ecp-28): M. Dolg, H. Stoll, H.Preuss, J. Chem. Phys., 1989, 90, 1730-1734.
Y-Cd(ecp-28), Hf-Hg(ecp-46): D. Andrae,U. Haeussermann, M. Dolg, H. Stoll, H. Preuss, Theor. Chim. Acta, 1990, 77, 123-141.
In-Sb(ecp-28), Tl-Bi(ecp-46): B. Metz, H. Stoll, M. Dolg, J. Chem. Phys., 2000, 113, 2563-2569.
Te-Xe(ecp-28), Po-Rn(ecp-46): K. A. Peterson, D. Figgen, E. Goll, H. Stoll, M. Dolg, J. Chem. Phys., 2003, 119, 11113-11123.
Rb(ecp-28), Cs(ecp-46): T. Leininger, A. Nicklass, W. Kuechle, H. Stoll, M. Dolg, A. Bergner, Chem. Phys. Lett., 1996, 255, 274-280.
Sr(ecp-28), Ba(ecp-46): M. Kaupp, P. V. Schleyer, H. Stoll and H. Preuss, J. Chem. Phys., 1991, 94, 1360-1366.
La(ecp-46): M. Dolg, H. Stoll, A. Savin, H. Preuss, Theor. Chim. Acta, 1989, 75, 173-194.
Lu(ecp-28): X. Cao, M. Dolg, J. Chem. Phys., 2001, 115, 7348-7355.

ECP parameters for Hf [Def2-ECP] have been obtained from:
TURBOMOLE (7.0.2)

----- Orbital basis set information -----
Your calculation utilizes the basis: def2-SVP
   F. Weigend and R. Ahlrichs, Phys. Chem. Chem. Phys. 7, 3297 (2005).

----- AuxJ basis set information -----
Your calculation utilizes the auxiliary basis: def2/J
   H-Rn: F. Weigend, Phys. Chem. Chem. Phys. 8, 1057 (2006).
   Fr-Lr: K. Eichkorn, F. Weigend, O. Treutler, R. Ahlrichs; Theor. Chem. Acc. 97, 119 (1997).

================================================================================
                                        WARNINGS
                       Please study these warnings very carefully!
================================================================================


================================================================================
                                       INPUT FILE
================================================================================
NAME = 1.inp
|  1> ! TPSSh D3BJ def2-SVP NormalSCF
|  2> #%pal nprocs 8 end
|  3> %maxcore 3500
|  4> 
|  5> * xyz 0 1
|  6> Hf          -0.90767906309867        1.03299740893721        1.55774749872996
|  7> N           -1.46803243845667       -0.85494381337054        1.23163280256814
|  8> N           -2.34956296154710        2.17125949977546        0.77633336955134
|  9> N           -0.72869052213638        1.61033498748387        3.46025000785649
| 10> N            0.91556482214543        1.20581343567324        0.76329690626667
| 11> C           -1.92764524248129        1.26205017524065        4.18994737374287
| 12> H           -2.00925295697089        0.17078942907687        4.37457108520962
| 13> H           -2.80786459574277        1.59584417980631        3.63054421670247
| 14> H           -1.94308622244151        1.74879304932360        5.17869297566807
| 15> C            0.43469112903951        1.04524633958778        4.10846475682225
| 16> H            1.32113569364329        1.22972901999780        3.49668681561164
| 17> H            0.33851692057616       -0.04553385125911        4.27658466853846
| 18> H            0.59395118952616        1.50710458428099        5.09604490741418
| 19> C           -0.63036607415390       -1.75212709884138        1.99642395488156
| 20> H           -0.85516247469630       -1.71887843358190        3.08264440469047
| 21> H            0.42226659544491       -1.49277482712534        1.84209347011622
| 22> H           -0.77782868074938       -2.79692167620651        1.67803470731384
| 23> C           -2.86250893287484       -1.08559558770915        1.54031147705517
| 24> H           -3.47833672025900       -0.33671208535799        1.03628367318494
| 25> H           -3.06870116655177       -1.04294752962872        2.62791391031843
| 26> H           -3.17890770374989       -2.08282953452816        1.19477444062619
| 27> C            1.01307250370582        0.60308886826857       -0.54830014150865
| 28> H            0.44254758170420        1.16273463186818       -1.31546549453682
| 29> H            0.63750086348258       -0.42233391975921       -0.50967185802060
| 30> H            2.06088904499110        0.57479512572751       -0.88774831636032
| 31> C            1.28557494290445        2.60259867507447        0.70164669339389
| 32> H            1.09763933754301        3.07523372101039        1.67146338184544
| 33> H            0.72776253125915        3.15398455663821       -0.08344353542730
| 34> H            2.35570092431878        2.71724158809786        0.46424840956955
| 35> C           -2.21771511482916        3.56705365692016        1.13298472007520
| 36> H           -1.34953385165480        4.04999196968547        0.64284726274775
| 37> H           -2.10625898998642        3.65994655443056        2.21605280050226
| 38> H           -3.11189527971859        4.13376956284067        0.82755844787065
| 39> C           -2.36533117727864        2.02055728139164       -0.66188224151853
| 40> H           -2.35324654227700        0.95636779602183       -0.91966015797413
| 41> H           -1.50301409704428        2.52042950461808       -1.14978964880657
| 42> H           -3.27365327158176        2.46969275559119       -1.09537774471620
| 43> **                         ****END OF INPUT****
================================================================================

                       ****************************
                       * Single Point Calculation *
                       ****************************

---------------------------------
CARTESIAN COORDINATES (ANGSTROEM)
---------------------------------
  Hf    -0.907679    1.032997    1.557747
  N     -1.468032   -0.854944    1.231633
  N     -2.349563    2.171259    0.776333
  N     -0.728691    1.610335    3.460250
  N      0.915565    1.205813    0.763297
  C     -1.927645    1.262050    4.189947
  H     -2.009253    0.170789    4.374571
  H     -2.807865    1.595844    3.630544
  H     -1.943086    1.748793    5.178693
  C      0.434691    1.045246    4.108465
  H      1.321136    1.229729    3.496687
  H      0.338517   -0.045534    4.276585
  H      0.593951    1.507105    5.096045
  C     -0.630366   -1.752127    1.996424
  H     -0.855162   -1.718878    3.082644
  H      0.422267   -1.492775    1.842093
  H     -0.777829   -2.796922    1.678035
  C     -2.862509   -1.085596    1.540311
  H     -3.478337   -0.336712    1.036284
  H     -3.068701   -1.042948    2.627914
  H     -3.178908   -2.082830    1.194774
  C      1.013073    0.603089   -0.548300
  H      0.442548    1.162735   -1.315465
  H      0.637501   -0.422334   -0.509672
  H      2.060889    0.574795   -0.887748
  C      1.285575    2.602599    0.701647
  H      1.097639    3.075234    1.671463
  H      0.727763    3.153985   -0.083444
  H      2.355701    2.717242    0.464248
  C     -2.217715    3.567054    1.132985
  H     -1.349534    4.049992    0.642847
  H     -2.106259    3.659947    2.216053
  H     -3.111895    4.133770    0.827558
  C     -2.365331    2.020557   -0.661882
  H     -2.353247    0.956368   -0.919660
  H     -1.503014    2.520430   -1.149790
  H     -3.273653    2.469693   -1.095378

----------------------------
CARTESIAN COORDINATES (A.U.)
----------------------------
  NO LB      ZA    FRAG     MASS         X           Y           Z
   0 Hf   12.0000*   0   178.490   -1.715265    1.952082    2.943716
   1 N     7.0000    0    14.007   -2.774179   -1.615610    2.327449
   2 N     7.0000    0    14.007   -4.440031    4.103086    1.467057
   3 N     7.0000    0    14.007   -1.377026    3.043092    6.538925
   4 N     7.0000    0    14.007    1.730167    2.278657    1.442422
   5 C     6.0000    0    12.011   -3.642722    2.384929    7.917853
   6 H     1.0000    0     1.008   -3.796938    0.322745    8.266741
   7 H     1.0000    0     1.008   -5.306095    3.015708    6.860734
   8 H     1.0000    0     1.008   -3.671901    3.304740    9.786311
   9 C     6.0000    0    12.011    0.821447    1.975229    7.763873
  10 H     1.0000    0     1.008    2.496585    2.323851    6.607780
  11 H     1.0000    0     1.008    0.639704   -0.086047    8.081574
  12 H     1.0000    0     1.008    1.122405    2.848015    9.630129
  13 C     6.0000    0    12.011   -1.191219   -3.311040    3.772695
  14 H     1.0000    0     1.008   -1.616023   -3.248209    5.825354
  15 H     1.0000    0     1.008    0.797968   -2.820936    3.481052
  16 H     1.0000    0     1.008   -1.469883   -5.285416    3.171026
  17 C     6.0000    0    12.011   -5.409358   -2.051478    2.910767
  18 H     1.0000    0     1.008   -6.573104   -0.636294    1.958292
  19 H     1.0000    0     1.008   -5.799005   -1.970885    4.966038
  20 H     1.0000    0     1.008   -6.007265   -3.935977    2.257796
  21 C     6.0000    0    12.011    1.914430    1.139673   -1.036137
  22 H     1.0000    0     1.008    0.836294    2.197250   -2.485870
  23 H     1.0000    0     1.008    1.204702   -0.798095   -0.963140
  24 H     1.0000    0     1.008    3.894516    1.086205   -1.677601
  25 C     6.0000    0    12.011    2.429385    4.918199    1.325920
  26 H     1.0000    0     1.008    2.074238    5.811350    3.158608
  27 H     1.0000    0     1.008    1.375272    5.960167   -0.157685
  28 H     1.0000    0     1.008    4.451630    5.134842    0.877302
  29 C     6.0000    0    12.011   -4.190874    6.740755    2.141031
  30 H     1.0000    0     1.008   -2.550249    7.653376    1.214805
  31 H     1.0000    0     1.008   -3.980253    6.916297    4.187733
  32 H     1.0000    0     1.008   -5.880630    7.811692    1.563859
  33 C     6.0000    0    12.011   -4.469828    3.818300   -1.250776
  34 H     1.0000    0     1.008   -4.446991    1.807273   -1.737906
  35 H     1.0000    0     1.008   -2.840285    4.762922   -2.172788
  36 H     1.0000    0     1.008   -6.186308    4.667043   -2.069964
* core charge reduced due to ECP

--------------------------------
INTERNAL COORDINATES (ANGSTROEM)
--------------------------------
 Hf     0   0   0     0.000000000000     0.00000000     0.00000000
 N      1   0   0     1.996163510141     0.00000000     0.00000000
 N      1   2   0     1.996316058475   105.81714391     0.00000000
 N      1   2   3     1.996214260702   117.02683227   117.57668213
 N      1   2   3     1.996305434557   105.85711299   235.14018376
 C      4   1   2     1.446116515934   109.68864645   309.29587307
 H      6   4   1     1.109772837124   112.44124757    72.54427984
 H      6   4   1     1.095050884410   109.58776106   311.15176558
 H      6   4   1     1.102168278739   110.97240440   191.71171288
 C      4   1   2     1.446708127803   112.71595796    72.58231851
 H     10   4   1     1.092744286116   109.60582579    51.44518839
 H     10   4   1     1.107842591632   112.50548470   290.30544262
 H     10   4   1     1.101812760364   110.73896731   170.85490389
 C      2   1   3     1.446211703821   109.73960769   191.62886893
 H     14   2   1     1.109735896969   112.43909974    72.59016168
 H     14   2   1     1.095042024983   109.59215668   311.19882383
 H     14   2   1     1.102140028400   110.96665361   191.75798358
 C      2   1   3     1.446736831139   112.73710037   314.96784777
 H     18   2   1     1.092755412195   109.60454533    51.20985379
 H     18   2   1     1.107796527764   112.50348748   290.07604845
 H     18   2   1     1.101807410777   110.74291285   170.62139217
 C      5   1   2     1.446745128849   112.72292952    44.87638383
 H     22   5   1     1.107810789904   112.49747174    69.47150582
 H     22   5   1     1.092720501973   109.61732336   308.33419204
 H     22   5   1     1.101791769559   110.73841524   188.92711544
 C      5   1   2     1.446277028519   109.52553583   168.04081907
 H     26   5   1     1.095101861750   109.58260717    48.89197494
 H     26   5   1     1.109751208318   112.42129673   287.50099567
 H     26   5   1     1.102120936543   110.98059905   168.34114910
 C      3   1   2     1.446660073975   112.81800256   169.74998009
 H     30   3   1     1.107791878802   112.51758170    69.88606673
 H     30   3   1     1.092743348190   109.61312055   308.73890271
 H     30   3   1     1.101821352606   110.72948448   189.32964119
 C      3   1   2     1.446175625288   109.73873534   293.15799715
 H     34   3   1     1.095031850398   109.58853522    48.87961598
 H     34   3   1     1.109737187132   112.44699142   287.47744352
 H     34   3   1     1.102129780233   110.95779783   168.32169779

---------------------------
INTERNAL COORDINATES (A.U.)
---------------------------
 Hf     0   0   0     0.000000000000     0.00000000     0.00000000
 N      1   0   0     3.772202352693     0.00000000     0.00000000
 N      1   2   0     3.772490627266   105.81714391     0.00000000
 N      1   2   3     3.772298257355   117.02683227   117.57668213
 N      1   2   3     3.772470550972   105.85711299   235.14018376
 C      4   1   2     2.732764172856   109.68864645   309.29587307
 H      6   4   1     2.097166733029   112.44124757    72.54427984
 H      6   4   1     2.069346274243   109.58776106   311.15176558
 H      6   4   1     2.082796200313   110.97240440   191.71171288
 C      4   1   2     2.733882157265   112.71595796    72.58231851
 H     10   4   1     2.064987435166   109.60582579    51.44518839
 H     10   4   1     2.093519097677   112.50548470   290.30544262
 H     10   4   1     2.082124367947   110.73896731   170.85490389
 C      2   1   3     2.732944051894   109.73960769   191.62886893
 H     14   2   1     2.097096926253   112.43909974    72.59016168
 H     14   2   1     2.069329532352   109.59215668   311.19882383
 H     14   2   1     2.082742814909   110.96665361   191.75798358
 C      2   1   3     2.733936398709   112.73710037   314.96784777
 H     18   2   1     2.065008460410   109.60454533    51.20985379
 H     18   2   1     2.093432049584   112.50348748   290.07604845
 H     18   2   1     2.082114258694   110.74291285   170.62139217
 C      5   1   2     2.733952079110   112.72292952    44.87638383
 H     22   5   1     2.093459001121   112.49747174    69.47150582
 H     22   5   1     2.064942489650   109.61732336   308.33419204
 H     22   5   1     2.082084701075   110.73841524   188.92711544
 C      5   1   2     2.733067497682   109.52553583   168.04081907
 H     26   5   1     2.069442607455   109.58260717    48.89197494
 H     26   5   1     2.097125860510   112.42129673   287.50099567
 H     26   5   1     2.082706736528   110.98059905   168.34114910
 C      3   1   2     2.733791348691   112.81800256   169.74998009
 H     30   3   1     2.093423264317   112.51758170    69.88606673
 H     30   3   1     2.064985662743   109.61312055   308.73890271
 H     30   3   1     2.082140604931   110.72948448   189.32964119
 C      3   1   2     2.732875873347   109.73873534   293.15799715
 H     34   3   1     2.069310305174   109.58853522    48.87961598
 H     34   3   1     2.097099364308   112.44699142   287.47744352
 H     34   3   1     2.082723448679   110.95779783   168.32169779

---------------------
BASIS SET INFORMATION
---------------------
There are 4 groups of distinct atoms

 Group   1 Type Hf  : 7s6p5d1f contracted to 6s3p2d1f pattern {211111/411/41/1}
 Group   2 Type N   : 7s4p1d contracted to 3s2p1d pattern {511/31/1}
 Group   3 Type C   : 7s4p1d contracted to 3s2p1d pattern {511/31/1}
 Group   4 Type H   : 4s1p contracted to 2s1p pattern {31/1}

Atom   0Hf   basis set group =>   1
Atom   1N    basis set group =>   2
Atom   2N    basis set group =>   2
Atom   3N    basis set group =>   2
Atom   4N    basis set group =>   2
Atom   5C    basis set group =>   3
Atom   6H    basis set group =>   4
Atom   7H    basis set group =>   4
Atom   8H    basis set group =>   4
Atom   9C    basis set group =>   3
Atom  10H    basis set group =>   4
Atom  11H    basis set group =>   4
Atom  12H    basis set group =>   4
Atom  13C    basis set group =>   3
Atom  14H    basis set group =>   4
Atom  15H    basis set group =>   4
Atom  16H    basis set group =>   4
Atom  17C    basis set group =>   3
Atom  18H    basis set group =>   4
Atom  19H    basis set group =>   4
Atom  20H    basis set group =>   4
Atom  21C    basis set group =>   3
Atom  22H    basis set group =>   4
Atom  23H    basis set group =>   4
Atom  24H    basis set group =>   4
Atom  25C    basis set group =>   3
Atom  26H    basis set group =>   4
Atom  27H    basis set group =>   4
Atom  28H    basis set group =>   4
Atom  29C    basis set group =>   3
Atom  30H    basis set group =>   4
Atom  31H    basis set group =>   4
Atom  32H    basis set group =>   4
Atom  33C    basis set group =>   3
Atom  34H    basis set group =>   4
Atom  35H    basis set group =>   4
Atom  36H    basis set group =>   4
---------------------------------
AUXILIARY/J BASIS SET INFORMATION
---------------------------------
There are 4 groups of distinct atoms

 Group   1 Type Hf  : 11s5p5d3f3g contracted to 8s5p5d2f3g pattern {41111111/11111/11111/21/111}
 Group   2 Type N   : 12s5p4d2f1g contracted to 6s4p3d1f1g pattern {711111/2111/211/2/1}
 Group   3 Type C   : 12s5p4d2f1g contracted to 6s4p3d1f1g pattern {711111/2111/211/2/1}
 Group   4 Type H   : 5s2p1d contracted to 3s1p1d pattern {311/2/1}

Atom   0Hf   basis set group =>   1
Atom   1N    basis set group =>   2
Atom   2N    basis set group =>   2
Atom   3N    basis set group =>   2
Atom   4N    basis set group =>   2
Atom   5C    basis set group =>   3
Atom   6H    basis set group =>   4
Atom   7H    basis set group =>   4
Atom   8H    basis set group =>   4
Atom   9C    basis set group =>   3
Atom  10H    basis set group =>   4
Atom  11H    basis set group =>   4
Atom  12H    basis set group =>   4
Atom  13C    basis set group =>   3
Atom  14H    basis set group =>   4
Atom  15H    basis set group =>   4
Atom  16H    basis set group =>   4
Atom  17C    basis set group =>   3
Atom  18H    basis set group =>   4
Atom  19H    basis set group =>   4
Atom  20H    basis set group =>   4
Atom  21C    basis set group =>   3
Atom  22H    basis set group =>   4
Atom  23H    basis set group =>   4
Atom  24H    basis set group =>   4
Atom  25C    basis set group =>   3
Atom  26H    basis set group =>   4
Atom  27H    basis set group =>   4
Atom  28H    basis set group =>   4
Atom  29C    basis set group =>   3
Atom  30H    basis set group =>   4
Atom  31H    basis set group =>   4
Atom  32H    basis set group =>   4
Atom  33C    basis set group =>   3
Atom  34H    basis set group =>   4
Atom  35H    basis set group =>   4
Atom  36H    basis set group =>   4
-------------------------
ECP PARAMETER INFORMATION
-------------------------

 Group 1, Type Hf ECP Def2-ECP (replacing 60 core electrons, lmax=3)

Atom   0Hf   ECP group =>   1

------------------------------------------------------------------------------
                             ORCA STARTUP CALCULATIONS
                           -- RI-GTO INTEGRALS CHOSEN --
------------------------------------------------------------------------------
------------------------------------------------------------------------------
                   ___                                                        
                  /   \      - P O W E R E D   B Y -                         
                 /     \                                                     
                 |  |  |   _    _      __       _____    __    __             
                 |  |  |  | |  | |    /  \     |  _  \  |  |  /  |          
                  \  \/   | |  | |   /    \    | | | |  |  | /  /          
                 / \  \   | |__| |  /  /\  \   | |_| |  |  |/  /          
                |  |  |   |  __  | /  /__\  \  |    /   |      \           
                |  |  |   | |  | | |   __   |  |    \   |  |\   \          
                \     /   | |  | | |  |  |  |  | |\  \  |  | \   \       
                 \___/    |_|  |_| |__|  |__|  |_| \__\ |__|  \__/        
                                                                              
                      - O R C A' S   B I G   F R I E N D -                    
                                      &                                       
                       - I N T E G R A L  F E E D E R -                       
                                                                              
 v1 FN, 2020, v2 2021, v3 2022-2024                                           
------------------------------------------------------------------------------


----------------------
SHARK INTEGRAL PACKAGE
----------------------

Number of atoms                             ...     37
Number of basis functions                   ...    320
Number of shells                            ...    156
Maximum angular momentum                    ...      3
Integral batch strategy                     ... SHARK/LIBINT Hybrid
RI-J (if used) integral strategy            ... SPLIT-RIJ (Revised 2003 algorithm where possible)
Printlevel                                  ...      1
Contraction scheme used                     ... SEGMENTED contraction
Prescreening option                         ... SCHWARTZ
   Thresh                                   ... 1.000e-10
   Tcut                                     ... 1.000e-11
   Tpresel                                  ... 1.000e-11 
Coulomb Range Separation                    ... NOT USED
Exchange Range Separation                   ... NOT USED
Multipole approximations                    ... NOT USED
Finite Nucleus Model                        ... NOT USED
CABS basis                                  ... NOT available
Auxiliary Coulomb fitting basis             ... AVAILABLE
   # of basis functions in Aux-J            ...    941
   # of shells in Aux-J                     ...    323
   Maximum angular momentum in Aux-J        ...      4
Auxiliary J/K fitting basis                 ... NOT available
Auxiliary Correlation fitting basis         ... NOT available
Auxiliary 'external' fitting basis          ... NOT available

Checking pre-screening integrals            ... done (  0.0 sec) Dimension = 156
   => SHARK Basis and OBASIS are compatible. Storing Pre-screening
Shell pair information
Shell pair cut-off parameter TPreSel        ...   1.0e-11
Total number of shell pairs                 ...     12246
Shell pairs after pre-screening             ...     10633
Total number of primitive shell pairs       ...     40427
Primitive shell pairs kept                  ...     24011
          la=0 lb=0:   3690 shell pairs
          la=1 lb=0:   3956 shell pairs
          la=1 lb=1:   1077 shell pairs
          la=2 lb=0:   1081 shell pairs
          la=2 lb=1:    581 shell pairs
          la=2 lb=2:     92 shell pairs
          la=3 lb=0:     90 shell pairs
          la=3 lb=1:     51 shell pairs
          la=3 lb=2:     14 shell pairs
          la=3 lb=3:      1 shell pairs

Checking whether 4 symmetric matrices of dimension 320 fit in memory
:Max Core in MB      =   3500.00
 MB in use           =     13.55
 MB left             =   3486.45
 MB needed           =      1.57
 Data fit in memory  = YES
Calculating RI/J V-Matrix + Cholesky decomp.... done (  0.0 sec)
Calculating Nuclear repulsion               ... done (  0.0 sec) ENN=   1025.864957968572 Eh

Diagonalization of the overlap matrix:
Smallest eigenvalue                        ... 2.582e-03
Time for diagonalization                   ...    0.011 sec
Threshold for overlap eigenvalues          ... 1.000e-07
Number of eigenvalues below threshold      ... 0
Time for construction of square roots      ...    0.005 sec
Total time needed                          ...    0.016 sec

-------------------
DFT GRID GENERATION
-------------------

General Integration Accuracy     IntAcc      ... 4.388
Radial Grid Type                 RadialGrid  ... OptM3 with GC (2021)
Angular Grid (max. ang.)         AngularGrid ... 4 (Lebedev-302)
Angular grid pruning method      GridPruning ... 4 (adaptive)
Weight generation scheme         WeightScheme... mBecke (2022)
Basis function cutoff            BFCut       ... 1.0000e-10
Integration weight cutoff        WCut        ... 1.0000e-14
Partially contracted basis set               ... off
Rotationally invariant grid construction     ... off
Angular grids for H and He will be reduced by one unit

Total number of grid points                  ...   157635
Total number of batches                      ...     2480
Average number of points per batch           ...       63
Average number of grid points per atom       ...     4260

--------------------
COSX GRID GENERATION
--------------------

GRIDX 1
-------
General Integration Accuracy     IntAcc      ... 3.816
Radial Grid Type                 RadialGrid  ... OptM3 with GC (2021)
Angular Grid (max. ang.)         AngularGrid ... 1 (Lebedev-50)
Angular grid pruning method      GridPruning ... 4 (adaptive)
Weight generation scheme         WeightScheme... mBecke (2022)
Basis function cutoff            BFCut       ... 1.0000e-10
Integration weight cutoff        WCut        ... 1.0000e-14
Partially contracted basis set               ... on
Rotationally invariant grid construction     ... off
Angular grids for H and He will be reduced by one unit

Total number of grid points                  ...    23843
Total number of batches                      ...      209
Average number of points per batch           ...      114
Average number of grid points per atom       ...      644
UseSFitting                                  ... on

GRIDX 2
-------
General Integration Accuracy     IntAcc      ... 4.020
Radial Grid Type                 RadialGrid  ... OptM3 with GC (2021)
Angular Grid (max. ang.)         AngularGrid ... 2 (Lebedev-110)
Angular grid pruning method      GridPruning ... 4 (adaptive)
Weight generation scheme         WeightScheme... mBecke (2022)
Basis function cutoff            BFCut       ... 1.0000e-10
Integration weight cutoff        WCut        ... 1.0000e-14
Partially contracted basis set               ... on
Rotationally invariant grid construction     ... off
Angular grids for H and He will be reduced by one unit

Total number of grid points                  ...    43670
Total number of batches                      ...      359
Average number of points per batch           ...      121
Average number of grid points per atom       ...     1180
UseSFitting                                  ... on

GRIDX 3
-------
General Integration Accuracy     IntAcc      ... 4.338
Radial Grid Type                 RadialGrid  ... OptM3 with GC (2021)
Angular Grid (max. ang.)         AngularGrid ... 3 (Lebedev-194)
Angular grid pruning method      GridPruning ... 4 (adaptive)
Weight generation scheme         WeightScheme... mBecke (2022)
Basis function cutoff            BFCut       ... 1.0000e-10
Integration weight cutoff        WCut        ... 1.0000e-14
Partially contracted basis set               ... on
Rotationally invariant grid construction     ... off
Angular grids for H and He will be reduced by one unit

Total number of grid points                  ...    88844
Total number of batches                      ...      712
Average number of points per batch           ...      124
Average number of grid points per atom       ...     2401
UseSFitting                                  ... on
Grids setup in   3.3 sec
Initializing property integral containers    ... done (  0.0 sec)

SHARK setup successfully completed in   3.9 seconds

Maximum memory used throughout the entire STARTUP-calculation: 67.8 MB
-------------------------------------------------------------------------------
                                 ORCA GUESS
                   Start orbitals & Density for SCF / CASSCF
-------------------------------------------------------------------------------

------------
SCF SETTINGS
------------
Hamiltonian:
 Density Functional     Method          .... DFT(GTOs)
 Exchange Functional    Exchange        .... TPSS
 Correlation Functional Correlation     .... TPSS
 LDA part of GGA corr.  LDAOpt          .... PW91-LDA
 Gradients option       PostSCFGGA      .... off
 Hybrid DFT is turned on
   Fraction HF Exchange ScalHFX         ....  0.100000
   Scaling of DF-GGA-X  ScalDFX         ....  0.900000
   Scaling of DF-GGA-C  ScalDFC         ....  1.000000
   Scaling of DF-LDA-C  ScalLDAC        ....  1.000000
   Perturbative correction              ....  0.000000
   NL short-range parameter             ....  5.200000
 RI-approximation to the Coulomb term is turned on
   Number of AuxJ basis functions       .... 941
   RIJ-COSX (HFX calculated with COS-X)).... on


General Settings:
 Integral files         IntName         .... 1
 Hartree-Fock type      HFTyp           .... RHF
 Total Charge           Charge          ....    0
 Multiplicity           Mult            ....    1
 Number of Electrons    NEL             ....  112
 Basis Dimension        Dim             ....  320
 Nuclear Repulsion      ENuc            ....   1025.8649579686 Eh

Convergence Acceleration:
 AO-DIIS                CNVDIIS         .... on
   Start iteration      DIISMaxIt       ....    12
   Startup error        DIISStart       ....  0.200000
   # of expansion vecs  DIISMaxEq       ....     5
   Bias factor          DIISBfac        ....   1.050
   Max. coefficient     DIISMaxC        ....  10.000
 MO-DIIS                CNVKDIIS        .... off
 Trust-Rad. Augm. Hess. CNVTRAH         .... auto
   Auto Start mean grad. ratio tolernc. ....  1.125000
   Auto Start start iteration           ....    50
   Auto Start num. interpolation iter.  ....    10
   Max. Number of Micro iterations      ....    24
   Max. Number of Macro iterations      .... Maxiter - #DIIS iter
   Number of Davidson start vectors     ....     2
   Converg. threshold    (grad. norm)   ....   5.000e-05
   Grad. Scal. Fac. for Micro threshold ....   0.100
   Minimum threshold for Micro iter.    ....   1.000e-02
   NR start threshold (gradient norm)   ....   1.000e-04
   Initial trust radius                 ....   0.400
   Minimum AH scaling param. (alpha)    ....   1.000
   Maximum AH scaling param. (alpha)    .... 1000.000
   Quad. conv. algorithm                .... NR
   White noise on init. David. guess    .... on
   Maximum white noise                  ....   0.010
   Pseudo random numbers                .... off
   Inactive MOs                         .... canonical
   Orbital update algorithm             .... Taylor
   Preconditioner                       .... Diag
   Full preconditioner red. dimension   ....   250
 SOSCF                 CNVSOSCF           .... on
   Start iteration     SOSCFMaxIt         ....   150
   Startup grad/error  SOSCFStart         ....  0.003300
   Hessian update      SOSCFHessUp        .... L-BFGS
   Autom. constraints  SOSCFAutoConstrain .... off
 Level Shifting         CNVShift        .... on
   Level shift para.    LevelShift      ....    0.2500
   Turn off err/grad.   ShiftErr        ....    0.0010
 Zerner damping         CNVZerner       .... off
 Static damping         CNVDamp         .... on
   Fraction old density DampFac         ....    0.7000
   Max. Damping (<1)    DampMax         ....    0.9800
   Min. Damping (>=0)   DampMin         ....    0.0000
   Turn off err/grad.   DampErr         ....    0.1000

SCF Procedure:
 Maximum # iterations   MaxIter         ....   125
 SCF integral mode      SCFMode         .... Direct
   Integral package                     .... SHARK and LIBINT hybrid scheme
 Reset frequency        DirectResetFreq ....    20
 Integral Threshold     Thresh          ....  1.000e-10 Eh
 Primitive CutOff       TCut            ....  1.000e-11 Eh

Convergence Tolerance:
 Convergence Check Mode ConvCheckMode   .... Total+1el-Energy
 Convergence forced     ConvForced      .... 0
 Energy Change          TolE            ....  1.000e-06 Eh
 1-El. energy change                    ....  1.000e-03 Eh
 Orbital Gradient       TolG            ....  5.000e-05
 Orbital Rotation angle TolX            ....  5.000e-05
 DIIS Error             TolErr          ....  1.000e-05

------------------------------
INITIAL GUESS: MODEL POTENTIAL
------------------------------
Loading Hartree-Fock densities                     ... done
Atomic calculation to generate a density for atom 0 (Hf with ECP)
  Multiplicity assumed   :    3
  Atomic configuration   : 1s2 2s2 2p6 3s2 3p6 4s2 3d10 4p6 5s2 4d10 5p6 6s2 4f14 5d2 
  Number of open shells  : 1
  Command: C:\ORCA_6.1.0\orca.exe 1_atom72.inp "" > 1_atom72.out
Returned from the atomic calculation with res=0
Calculating cut-offs                               ... done
Initializing the effective Hamiltonian             ... done
Setting up the integral package (SHARK)            ... done
Starting the Coulomb interaction                   ... done (   0.5 sec)
Making the grid                                    ... done (   0.4 sec)
Mapping shells                                     ... done
Starting the XC term evaluation                    ... done (   0.6 sec)
  promolecular density results
     # of electrons  =    171.993179365
     EX              =   -383.553462904
     EC              =     -7.600361173
     EX+EC           =   -391.153824077
Transforming the Hamiltonian                       ... done (   0.0 sec)
Diagonalizing the Hamiltonian                      ... done (   0.0 sec)
Back transforming the eigenvectors                 ... done (   0.0 sec)
Now organizing SCF variables                       ... done
                      ------------------
                      INITIAL GUESS DONE (   7.2 sec)
                      ------------------
             **** ENERGY FILE WAS UPDATED (1.en.tmp) ****
Finished Guess after   7.3 sec
Maximum memory used throughout the entire GUESS-calculation: 25.3 MB

-------------------------------------------------------------------------------------------
                                      ORCA LEAN-SCF
                              memory conserving SCF solver
-------------------------------------------------------------------------------------------

----------------------------------------D-I-I-S--------------------------------------------
Iteration    Energy (Eh)           Delta-E    RMSDP     MaxDP     DIISErr   Damp  Time(sec)
-------------------------------------------------------------------------------------------
               ***  Starting incremental Fock matrix formation  ***
    1    -585.2729082926923638     0.00e+00  4.31e-03  2.87e-01  3.37e-01  0.700  16.4
    2    -585.6267037466000147    -3.54e-01  3.04e-03  2.15e-01  2.35e-01  0.700   9.5
                               ***Turning on AO-DIIS***
    3    -585.7519681860737819    -1.25e-01  1.26e-03  1.44e-01  1.62e-01  0.700   9.3
    4    -585.8285489894321927    -7.66e-02  7.01e-04  9.13e-02  1.12e-01  0.700   8.4
    5    -585.8812205758429172    -5.27e-02  4.89e-04  6.22e-02  7.82e-02  0.700   7.9
    6    -585.9178899040248325    -3.67e-02  1.18e-03  1.46e-01  5.47e-02  0.000   7.8
                              *** Initializing SOSCF ***
---------------------------------------S-O-S-C-F--------------------------------------
Iteration    Energy (Eh)           Delta-E    RMSDP     MaxDP     MaxGrad    Time(sec)
--------------------------------------------------------------------------------------
    7    -586.0032901609342844    -8.54e-02  7.19e-05  2.25e-03  1.55e-03     8.5
               *** Restarting incremental Fock matrix formation ***
    8    -586.0033223287778128    -3.22e-05  6.73e-05  3.39e-03  3.64e-04    17.2
    9    -586.0033120013308690     1.03e-05  3.13e-05  1.45e-03  5.49e-04    11.1
   10    -586.0033304328567283    -1.84e-05  6.40e-06  1.99e-04  3.19e-05     9.8
   11    -586.0033302913536772     1.42e-07  3.62e-06  1.32e-04  5.04e-05     7.7
                 **** Energy Check signals convergence ****

               *****************************************************
               *                     SUCCESS                       *
               *           SCF CONVERGED AFTER  11 CYCLES          *
               *****************************************************

Recomputing exchange energy using gridx3       ... done (   26.417 sec)
Old exchange energy                            :     -8.198761731 Eh
New exchange energy                            :     -8.198777361 Eh
Exchange energy change after final integration :     -0.000015630 Eh
Total energy after final integration           :   -586.003346174 Eh
             **** ENERGY FILE WAS UPDATED (1.en.tmp) ****

----------------
TOTAL SCF ENERGY
----------------

Total Energy       :       -586.00334617446117 Eh          -15945.96173 eV

Components:
Nuclear Repulsion  :       1025.86495796857230 Eh           27915.20469 eV
Electronic Energy  :      -1611.86828851297878 Eh          -43861.16599 eV
One Electron Energy:      -2845.26627310367439 Eh          -77423.63143 eV
Two Electron Energy:       1233.39798459069561 Eh           33562.46544 eV

Virial components:
Potential Energy   :      -1135.38093603255265 Eh          -30895.28596 eV
Kinetic Energy     :        549.37758985809160 Eh           14949.32423 eV
Virial Ratio       :          2.06666772906742

DFT components:
N(Alpha)           :       56.000092775903 electrons
N(Beta)            :       56.000092775903 electrons
N(Total)           :      112.000185551805 electrons
E(X)               :      -74.336530494704 Eh       
E(C)               :       -3.747024485721 Eh       
E(XC)              :      -78.083554980425 Eh       

---------------
SCF CONVERGENCE
---------------

  Last Energy change         ...   -1.4150e-07  Tolerance :   1.0000e-06
  Last MAX-Density change    ...    1.3227e-04  Tolerance :   1.0000e-05
  Last RMS-Density change    ...    3.6150e-06  Tolerance :   1.0000e-06
  Last DIIS Error            ...    1.5477e-03  Tolerance :   1.0000e-05
  Last Orbital Gradient      ...    5.0386e-05  Tolerance :   5.0000e-05
  Last Orbital Rotation      ...    7.6226e-05  Tolerance :   5.0000e-05


----------------
ORBITAL ENERGIES
----------------

  NO   OCC          E(Eh)            E(eV) 
   0   2.0000     -14.213377      -386.7656 
   1   2.0000     -14.213346      -386.7648 
   2   2.0000     -14.213296      -386.7635 
   3   2.0000     -14.213276      -386.7629 
   4   2.0000     -10.148521      -276.1553 
   5   2.0000     -10.148488      -276.1544 
   6   2.0000     -10.148445      -276.1532 
   7   2.0000     -10.148408      -276.1522 
   8   2.0000     -10.142715      -275.9973 
   9   2.0000     -10.142713      -275.9973 
  10   2.0000     -10.142650      -275.9955 
  11   2.0000     -10.142646      -275.9954 
  12   2.0000      -2.371681       -64.5367 
  13   2.0000      -1.239527       -33.7293 
  14   2.0000      -1.239525       -33.7292 
  15   2.0000      -1.237586       -33.6764 
  16   2.0000      -0.856127       -23.2964 
  17   2.0000      -0.842579       -22.9277 
  18   2.0000      -0.842568       -22.9274 
  19   2.0000      -0.842047       -22.9133 
  20   2.0000      -0.677208       -18.4278 
  21   2.0000      -0.677180       -18.4270 
  22   2.0000      -0.676919       -18.4199 
  23   2.0000      -0.670300       -18.2398 
  24   2.0000      -0.577254       -15.7079 
  25   2.0000      -0.575524       -15.6608 
  26   2.0000      -0.566726       -15.4214 
  27   2.0000      -0.566710       -15.4210 
  28   2.0000      -0.459444       -12.5021 
  29   2.0000      -0.447078       -12.1656 
  30   2.0000      -0.439821       -11.9681 
  31   2.0000      -0.435851       -11.8601 
  32   2.0000      -0.435800       -11.8587 
  33   2.0000      -0.431551       -11.7431 
  34   2.0000      -0.426194       -11.5973 
  35   2.0000      -0.426148       -11.5961 
  36   2.0000      -0.426094       -11.5946 
  37   2.0000      -0.416957       -11.3460 
  38   2.0000      -0.416931       -11.3453 
  39   2.0000      -0.414820       -11.2878 
  40   2.0000      -0.377428       -10.2703 
  41   2.0000      -0.377381       -10.2691 
  42   2.0000      -0.362557        -9.8657 
  43   2.0000      -0.362407        -9.8616 
  44   2.0000      -0.345818        -9.4102 
  45   2.0000      -0.344904        -9.3853 
  46   2.0000      -0.344841        -9.3836 
  47   2.0000      -0.341085        -9.2814 
  48   2.0000      -0.315483        -8.5847 
  49   2.0000      -0.290065        -7.8931 
  50   2.0000      -0.266390        -7.2488 
  51   2.0000      -0.266340        -7.2475 
  52   2.0000      -0.213152        -5.8002 
  53   2.0000      -0.203574        -5.5395 
  54   2.0000      -0.203519        -5.5380 
  55   2.0000      -0.186064        -5.0631 
  56   0.0000      -0.001622        -0.0441 
  57   0.0000       0.000673         0.0183 
  58   0.0000       0.026789         0.7290 
  59   0.0000       0.044409         1.2084 
  60   0.0000       0.044417         1.2087 
  61   0.0000       0.050369         1.3706 
  62   0.0000       0.067935         1.8486 
  63   0.0000       0.068033         1.8513 
  64   0.0000       0.088726         2.4144 
  65   0.0000       0.092034         2.5044 
  66   0.0000       0.105792         2.8788 
*Only the first 10 virtual orbitals were printed.

                    ********************************
                    * MULLIKEN POPULATION ANALYSIS *
                    ********************************

-----------------------
MULLIKEN ATOMIC CHARGES
-----------------------
   0 Hf:    0.655307
   1 N :   -0.598407
   2 N :   -0.598599
   3 N :   -0.598552
   4 N :   -0.597979
   5 C :    0.086232
   6 H :    0.030609
   7 H :    0.083794
   8 H :    0.019942
   9 C :    0.105405
  10 H :    0.069707
  11 H :    0.026349
  12 H :    0.012725
  13 C :    0.085634
  14 H :    0.030647
  15 H :    0.083929
  16 H :    0.020042
  17 C :    0.105072
  18 H :    0.070005
  19 H :    0.026338
  20 H :    0.012785
  21 C :    0.105161
  22 H :    0.026537
  23 H :    0.069370
  24 H :    0.012726
  25 C :    0.085378
  26 H :    0.084317
  27 H :    0.030911
  28 H :    0.020200
  29 C :    0.105583
  30 H :    0.026192
  31 H :    0.069656
  32 H :    0.012601
  33 C :    0.086141
  34 H :    0.083735
  35 H :    0.030556
  36 H :    0.019950
Sum of atomic charges:   -0.0000000

--------------------------------
MULLIKEN REDUCED ORBITAL CHARGES
--------------------------------
  0 Hfs       :     2.499333  s :     2.499333
      pz      :     2.106031  p :     6.291751
      px      :     2.086341
      py      :     2.099379
      dz2     :     0.579143  d :     2.377288
      dxz     :     0.408061
      dyz     :     0.464648
      dx2y2   :     0.524503
      dxy     :     0.400933
      f0      :     0.028256  f :     0.176321
      f+1     :     0.027242
      f-1     :     0.024606
      f+2     :     0.024475
      f-2     :     0.017280
      f+3     :     0.028667
      f-3     :     0.025795

  1 N s       :     3.623012  s :     3.623012
      pz      :     1.509928  p :     3.953260
      px      :     1.099965
      py      :     1.343367
      dz2     :     0.003187  d :     0.022135
      dxz     :     0.005566
      dyz     :     0.003677
      dx2y2   :     0.005276
      dxy     :     0.004429

  2 N s       :     3.622833  s :     3.622833
      pz      :     1.171030  p :     3.953639
      px      :     1.569352
      py      :     1.213257
      dz2     :     0.007062  d :     0.022128
      dxz     :     0.003127
      dyz     :     0.004218
      dx2y2   :     0.004226
      dxy     :     0.003495

  3 N s       :     3.623152  s :     3.623152
      pz      :     1.327802  p :     3.953253
      px      :     1.071963
      py      :     1.553488
      dz2     :     0.003665  d :     0.022147
      dxz     :     0.005652
      dyz     :     0.003254
      dx2y2   :     0.003916
      dxy     :     0.005660

  4 N s       :     3.623175  s :     3.623175
      pz      :     1.290370  p :     3.952649
      px      :     1.496412
      py      :     1.165867
      dz2     :     0.006164  d :     0.022155
      dxz     :     0.002901
      dyz     :     0.004699
      dx2y2   :     0.005327
      dxy     :     0.003064

  5 C s       :     3.004941  s :     3.004941
      pz      :     0.958842  p :     2.861798
      px      :     0.906396
      py      :     0.996560
      dz2     :     0.009752  d :     0.047029
      dxz     :     0.011282
      dyz     :     0.006631
      dx2y2   :     0.011983
      dxy     :     0.007381

  6 H s       :     0.947843  s :     0.947843
      pz      :     0.004755  p :     0.021548
      px      :     0.003363
      py      :     0.013429

  7 H s       :     0.894020  s :     0.894020
      pz      :     0.006627  p :     0.022186
      px      :     0.009879
      py      :     0.005680

  8 H s       :     0.958560  s :     0.958560
      pz      :     0.011644  p :     0.021498
      px      :     0.003241
      py      :     0.006613

  9 C s       :     2.994360  s :     2.994360
      pz      :     0.966624  p :     2.853424
      px      :     0.913616
      py      :     0.973184
      dz2     :     0.009258  d :     0.046811
      dxz     :     0.011721
      dyz     :     0.005833
      dx2y2   :     0.013078
      dxy     :     0.006920

 10 H s       :     0.907773  s :     0.907773
      pz      :     0.007717  p :     0.022520
      px      :     0.010005
      py      :     0.004798

 11 H s       :     0.951987  s :     0.951987
      pz      :     0.004872  p :     0.021664
      px      :     0.003391
      py      :     0.013401

 12 H s       :     0.965834  s :     0.965834
      pz      :     0.011634  p :     0.021441
      px      :     0.003604
      py      :     0.006203

 13 C s       :     3.005077  s :     3.005077
      pz      :     0.952613  p :     2.862267
      px      :     0.973810
      py      :     0.935845
      dz2     :     0.015373  d :     0.047022
      dxz     :     0.005331
      dyz     :     0.006237
      dx2y2   :     0.013327
      dxy     :     0.006753

 14 H s       :     0.947814  s :     0.947814
      pz      :     0.013186  p :     0.021539
      px      :     0.004168
      py      :     0.004186

 15 H s       :     0.893888  s :     0.893888
      pz      :     0.004519  p :     0.022183
      px      :     0.012991
      py      :     0.004673

 16 H s       :     0.958459  s :     0.958459
      pz      :     0.005123  p :     0.021498
      px      :     0.004009
      py      :     0.012367

 17 C s       :     2.994452  s :     2.994452
      pz      :     0.998598  p :     2.853662
      px      :     0.846724
      py      :     1.008340
      dz2     :     0.010992  d :     0.046814
      dxz     :     0.010395
      dyz     :     0.003469
      dx2y2   :     0.010048
      dxy     :     0.011910

 18 H s       :     0.907475  s :     0.907475
      pz      :     0.006671  p :     0.022520
      px      :     0.006217
      py      :     0.009632

 19 H s       :     0.952001  s :     0.952001
      pz      :     0.013379  p :     0.021661
      px      :     0.003347
      py      :     0.004935

 20 H s       :     0.965778  s :     0.965778
      pz      :     0.005735  p :     0.021437
      px      :     0.003695
      py      :     0.012007

 21 C s       :     2.994516  s :     2.994516
      pz      :     0.845053  p :     2.853503
      px      :     1.003310
      py      :     1.005139
      dz2     :     0.012204  d :     0.046820
      dxz     :     0.012446
      dyz     :     0.009758
      dx2y2   :     0.007739
      dxy     :     0.004672

 22 H s       :     0.951797  s :     0.951797
      pz      :     0.008008  p :     0.021666
      px      :     0.007260
      py      :     0.006398

 23 H s       :     0.908131  s :     0.908131
      pz      :     0.003253  p :     0.022500
      px      :     0.006341
      py      :     0.012905

 24 H s       :     0.965835  s :     0.965835
      pz      :     0.004113  p :     0.021439
      px      :     0.012977
      py      :     0.004349

 25 C s       :     3.005217  s :     3.005217
      pz      :     1.015588  p :     2.862380
      px      :     1.001628
      py      :     0.845165
      dz2     :     0.007286  d :     0.047024
      dxz     :     0.004242
      dyz     :     0.011999
      dx2y2   :     0.012887
      dxy     :     0.010610

 26 H s       :     0.893496  s :     0.893496
      pz      :     0.012004  p :     0.022187
      px      :     0.005126
      py      :     0.005057

 27 H s       :     0.947540  s :     0.947540
      pz      :     0.009094  p :     0.021549
      px      :     0.006941
      py      :     0.005514

 28 H s       :     0.958298  s :     0.958298
      pz      :     0.005073  p :     0.021501
      px      :     0.013403
      py      :     0.003025

 29 C s       :     2.994242  s :     2.994242
      pz      :     1.026473  p :     2.853361
      px      :     1.000770
      py      :     0.826117
      dz2     :     0.010734  d :     0.046814
      dxz     :     0.003678
      dyz     :     0.007462
      dx2y2   :     0.008801
      dxy     :     0.016139

 30 H s       :     0.952144  s :     0.952144
      pz      :     0.006241  p :     0.021664
      px      :     0.010362
      py      :     0.005061

 31 H s       :     0.907833  s :     0.907833
      pz      :     0.014145  p :     0.022511
      px      :     0.005169
      py      :     0.003196

 32 H s       :     0.965960  s :     0.965960
      pz      :     0.005153  p :     0.021439
      px      :     0.010828
      py      :     0.005458

 33 C s       :     3.004698  s :     3.004698
      pz      :     0.826955  p :     2.862139
      px      :     1.013281
      py      :     1.021904
      dz2     :     0.012614  d :     0.047022
      dxz     :     0.015127
      dyz     :     0.008384
      dx2y2   :     0.006560
      dxy     :     0.004338

 34 H s       :     0.894077  s :     0.894077
      pz      :     0.003697  p :     0.022188
      px      :     0.005018
      py      :     0.013474

 35 H s       :     0.947899  s :     0.947899
      pz      :     0.004940  p :     0.021544
      px      :     0.010226
      py      :     0.006379

 36 H s       :     0.958549  s :     0.958549
      pz      :     0.004339  p :     0.021501
      px      :     0.011149
      py      :     0.006014



                     *******************************
                     * LOEWDIN POPULATION ANALYSIS *
                     *******************************

----------------------
LOEWDIN ATOMIC CHARGES
----------------------
   0 Hf:   -0.110495
   1 N :   -0.207734
   2 N :   -0.207809
   3 N :   -0.207779
   4 N :   -0.207830
   5 C :    0.042146
   6 H :    0.015791
   7 H :    0.046123
   8 H :    0.018612
   9 C :    0.041251
  10 H :    0.042639
  11 H :    0.015147
  12 H :    0.013696
  13 C :    0.042063
  14 H :    0.015778
  15 H :    0.046125
  16 H :    0.018661
  17 C :    0.041214
  18 H :    0.042681
  19 H :    0.015094
  20 H :    0.013704
  21 C :    0.041254
  22 H :    0.015229
  23 H :    0.042559
  24 H :    0.013677
  25 C :    0.042169
  26 H :    0.046308
  27 H :    0.015914
  28 H :    0.018747
  29 C :    0.041222
  30 H :    0.015048
  31 H :    0.042593
  32 H :    0.013640
  33 C :    0.042108
  34 H :    0.046100
  35 H :    0.015713
  36 H :    0.018639

-------------------------------
LOEWDIN REDUCED ORBITAL CHARGES
-------------------------------
  0 Hfs       :     2.371071  s :     2.371071
      pz      :     2.164020  p :     6.511574
      px      :     2.178758
      py      :     2.168797
      dz2     :     0.667240  d :     2.834341
      dxz     :     0.500197
      dyz     :     0.537086
      dx2y2   :     0.624733
      dxy     :     0.505086
      f0      :     0.060800  f :     0.393508
      f+1     :     0.056177
      f-1     :     0.055803
      f+2     :     0.056645
      f-2     :     0.039435
      f+3     :     0.065154
      f-3     :     0.059494

  1 N s       :     3.177446  s :     3.177446
      pz      :     1.491736  p :     3.985197
      px      :     1.134065
      py      :     1.359396
      dz2     :     0.005467  d :     0.045091
      dxz     :     0.010464
      dyz     :     0.006261
      dx2y2   :     0.012470
      dxy     :     0.010430

  2 N s       :     3.177377  s :     3.177377
      pz      :     1.207512  p :     3.985343
      px      :     1.534157
      py      :     1.243675
      dz2     :     0.015977  d :     0.045089
      dxz     :     0.005358
      dyz     :     0.009232
      dx2y2   :     0.008259
      dxy     :     0.006262

  3 N s       :     3.177483  s :     3.177483
      pz      :     1.352737  p :     3.985186
      px      :     1.108893
      py      :     1.523556
      dz2     :     0.007590  d :     0.045110
      dxz     :     0.013816
      dyz     :     0.005229
      dx2y2   :     0.008046
      dxy     :     0.010428

  4 N s       :     3.177626  s :     3.177626
      pz      :     1.309601  p :     3.985095
      px      :     1.477912
      py      :     1.197583
      dz2     :     0.012831  d :     0.045108
      dxz     :     0.005041
      dyz     :     0.010118
      dx2y2   :     0.011175
      dxy     :     0.005943

  5 C s       :     2.818258  s :     2.818258
      pz      :     1.027840  p :     3.028317
      px      :     0.956307
      py      :     1.044169
      dz2     :     0.023076  d :     0.111279
      dxz     :     0.027157
      dyz     :     0.016070
      dx2y2   :     0.028811
      dxy     :     0.016165

  6 H s       :     0.920003  s :     0.920003
      pz      :     0.012876  p :     0.064206
      px      :     0.010608
      py      :     0.040721

  7 H s       :     0.888483  s :     0.888483
      pz      :     0.019909  p :     0.065395
      px      :     0.030355
      py      :     0.015131

  8 H s       :     0.917460  s :     0.917460
      pz      :     0.035580  p :     0.063928
      px      :     0.010846
      py      :     0.017502

  9 C s       :     2.818294  s :     2.818294
      pz      :     1.035343  p :     3.029617
      px      :     0.963555
      py      :     1.030720
      dz2     :     0.022017  d :     0.110839
      dxz     :     0.028211
      dyz     :     0.014062
      dx2y2   :     0.031283
      dxy     :     0.015265

 10 H s       :     0.891550  s :     0.891550
      pz      :     0.022222  p :     0.065811
      px      :     0.030949
      py      :     0.012640

 11 H s       :     0.920603  s :     0.920603
      pz      :     0.012805  p :     0.064250
      px      :     0.010536
      py      :     0.040908

 12 H s       :     0.922511  s :     0.922511
      pz      :     0.035374  p :     0.063792
      px      :     0.011832
      py      :     0.016587

 13 C s       :     2.818270  s :     2.818270
      pz      :     1.011942  p :     3.028420
      px      :     1.004525
      py      :     1.011953
      dz2     :     0.037347  d :     0.111247
      dxz     :     0.012082
      dyz     :     0.014607
      dx2y2   :     0.031907
      dxy     :     0.015304

 14 H s       :     0.920014  s :     0.920014
      pz      :     0.040753  p :     0.064208
      px      :     0.011885
      py      :     0.011569

 15 H s       :     0.888478  s :     0.888478
      pz      :     0.012048  p :     0.065397
      px      :     0.039471
      py      :     0.013877

 16 H s       :     0.917406  s :     0.917406
      pz      :     0.013637  p :     0.063933
      px      :     0.011829
      py      :     0.038467

 17 C s       :     2.818267  s :     2.818267
      pz      :     1.046825  p :     3.029684
      px      :     0.921030
      py      :     1.061828
      dz2     :     0.027521  d :     0.110836
      dxz     :     0.023347
      dyz     :     0.008217
      dx2y2   :     0.024259
      dxy     :     0.027491

 18 H s       :     0.891496  s :     0.891496
      pz      :     0.018580  p :     0.065823
      px      :     0.019800
      py      :     0.027443

 19 H s       :     0.920654  s :     0.920654
      pz      :     0.040533  p :     0.064252
      px      :     0.011470
      py      :     0.012248

 20 H s       :     0.922502  s :     0.922502
      pz      :     0.014805  p :     0.063794
      px      :     0.013175
      py      :     0.035815

 21 C s       :     2.818278  s :     2.818278
      pz      :     0.934023  p :     3.029616
      px      :     1.062518
      py      :     1.033076
      dz2     :     0.029339  d :     0.110852
      dxz     :     0.029207
      dyz     :     0.022799
      dx2y2   :     0.019292
      dxy     :     0.010215

 22 H s       :     0.920513  s :     0.920513
      pz      :     0.025992  p :     0.064258
      px      :     0.019857
      py      :     0.018409

 23 H s       :     0.891673  s :     0.891673
      pz      :     0.010196  p :     0.065768
      px      :     0.016649
      py      :     0.038923

 24 H s       :     0.922533  s :     0.922533
      pz      :     0.013410  p :     0.063790
      px      :     0.038350
      py      :     0.012030

 25 C s       :     2.818228  s :     2.818228
      pz      :     1.049299  p :     3.028350
      px      :     1.056715
      py      :     0.922336
      dz2     :     0.018224  d :     0.111252
      dxz     :     0.009947
      dyz     :     0.027861
      dx2y2   :     0.031446
      dxy     :     0.023775

 26 H s       :     0.888276  s :     0.888276
      pz      :     0.035894  p :     0.065416
      px      :     0.013795
      py      :     0.015727

 27 H s       :     0.919851  s :     0.919851
      pz      :     0.026683  p :     0.064234
      px      :     0.019088
      py      :     0.018463

 28 H s       :     0.917309  s :     0.917309
      pz      :     0.013198  p :     0.063944
      px      :     0.040021
      py      :     0.010725

 29 C s       :     2.818275  s :     2.818275
      pz      :     1.051216  p :     3.029656
      px      :     1.057676
      py      :     0.920763
      dz2     :     0.026612  d :     0.110848
      dxz     :     0.008653
      dyz     :     0.015970
      dx2y2   :     0.021417
      dxy     :     0.038196

 30 H s       :     0.920700  s :     0.920700
      pz      :     0.017219  p :     0.064252
      px      :     0.030184
      py      :     0.016849

 31 H s       :     0.891613  s :     0.891613
      pz      :     0.042404  p :     0.065794
      px      :     0.013000
      py      :     0.010390

 32 H s       :     0.922576  s :     0.922576
      pz      :     0.014160  p :     0.063784
      px      :     0.031077
      py      :     0.018546

 33 C s       :     2.818248  s :     2.818248
      pz      :     0.916807  p :     3.028386
      px      :     1.060940
      py      :     1.050638
      dz2     :     0.031078  d :     0.111258
      dxz     :     0.034939
      dyz     :     0.018178
      dx2y2   :     0.016055
      dxy     :     0.011009

 34 H s       :     0.888503  s :     0.888503
      pz      :     0.011960  p :     0.065396
      px      :     0.012845
      py      :     0.040591

 35 H s       :     0.920068  s :     0.920068
      pz      :     0.016875  p :     0.064219
      px      :     0.029650
      py      :     0.017695

 36 H s       :     0.917428  s :     0.917428
      pz      :     0.015239  p :     0.063933
      px      :     0.032098
      py      :     0.016596



                      *****************************
                      * MAYER POPULATION ANALYSIS *
                      *****************************

  NA   - Mulliken gross atomic population
  ZA   - Total nuclear charge
  QA   - Mulliken gross atomic charge
  VA   - Mayer's total valence
  BVA  - Mayer's bonded valence
  FA   - Mayer's free valence

  ATOM       NA         ZA         QA         VA         BVA        FA
  0 Hf    11.3447    12.0000     0.6553     5.3112     5.3112    -0.0000
  1 N      7.5984     7.0000    -0.5984     3.0717     3.0717    -0.0000
  2 N      7.5986     7.0000    -0.5986     3.0720     3.0720    -0.0000
  3 N      7.5986     7.0000    -0.5986     3.0718     3.0718    -0.0000
  4 N      7.5980     7.0000    -0.5980     3.0718     3.0718    -0.0000
  5 C      5.9138     6.0000     0.0862     3.9308     3.9308     0.0000
  6 H      0.9694     1.0000     0.0306     0.9763     0.9763    -0.0000
  7 H      0.9162     1.0000     0.0838     0.9694     0.9694    -0.0000
  8 H      0.9801     1.0000     0.0199     0.9744     0.9744     0.0000
  9 C      5.8946     6.0000     0.1054     3.9348     3.9348    -0.0000
 10 H      0.9303     1.0000     0.0697     0.9827     0.9827    -0.0000
 11 H      0.9737     1.0000     0.0263     0.9777     0.9777     0.0000
 12 H      0.9873     1.0000     0.0127     0.9736     0.9736    -0.0000
 13 C      5.9144     6.0000     0.0856     3.9309     3.9309     0.0000
 14 H      0.9694     1.0000     0.0306     0.9763     0.9763    -0.0000
 15 H      0.9161     1.0000     0.0839     0.9695     0.9695     0.0000
 16 H      0.9800     1.0000     0.0200     0.9744     0.9744     0.0000
 17 C      5.8949     6.0000     0.1051     3.9347     3.9347     0.0000
 18 H      0.9300     1.0000     0.0700     0.9827     0.9827    -0.0000
 19 H      0.9737     1.0000     0.0263     0.9777     0.9777     0.0000
 20 H      0.9872     1.0000     0.0128     0.9735     0.9735     0.0000
 21 C      5.8948     6.0000     0.1052     3.9351     3.9351     0.0000
 22 H      0.9735     1.0000     0.0265     0.9776     0.9776     0.0000
 23 H      0.9306     1.0000     0.0694     0.9827     0.9827     0.0000
 24 H      0.9873     1.0000     0.0127     0.9736     0.9736    -0.0000
 25 C      5.9146     6.0000     0.0854     3.9308     3.9308    -0.0000
 26 H      0.9157     1.0000     0.0843     0.9693     0.9693    -0.0000
 27 H      0.9691     1.0000     0.0309     0.9764     0.9764    -0.0000
 28 H      0.9798     1.0000     0.0202     0.9744     0.9744    -0.0000
 29 C      5.8944     6.0000     0.1056     3.9346     3.9346     0.0000
 30 H      0.9738     1.0000     0.0262     0.9777     0.9777     0.0000
 31 H      0.9303     1.0000     0.0697     0.9827     0.9827     0.0000
 32 H      0.9874     1.0000     0.0126     0.9736     0.9736    -0.0000
 33 C      5.9139     6.0000     0.0861     3.9308     3.9308    -0.0000
 34 H      0.9163     1.0000     0.0837     0.9696     0.9696    -0.0000
 35 H      0.9694     1.0000     0.0306     0.9763     0.9763    -0.0000
 36 H      0.9801     1.0000     0.0199     0.9745     0.9745    -0.0000

  Mayer bond orders larger than 0.100000
B(  0-Hf,  1-N ) :   1.0170 B(  0-Hf,  2-N ) :   1.0169 B(  0-Hf,  3-N ) :   1.0170 
B(  0-Hf,  4-N ) :   1.0170 B(  1-N , 13-C ) :   0.9914 B(  1-N , 17-C ) :   0.9921 
B(  2-N , 29-C ) :   0.9923 B(  2-N , 33-C ) :   0.9913 B(  3-N ,  5-C ) :   0.9913 
B(  3-N ,  9-C ) :   0.9922 B(  4-N , 21-C ) :   0.9924 B(  4-N , 25-C ) :   0.9910 
B(  5-C ,  6-H ) :   0.9354 B(  5-C ,  7-H ) :   0.9402 B(  5-C ,  8-H ) :   0.9495 
B(  9-C , 10-H ) :   0.9507 B(  9-C , 11-H ) :   0.9361 B(  9-C , 12-H ) :   0.9524 
B( 13-C , 14-H ) :   0.9355 B( 13-C , 15-H ) :   0.9402 B( 13-C , 16-H ) :   0.9495 
B( 17-C , 18-H ) :   0.9505 B( 17-C , 19-H ) :   0.9363 B( 17-C , 20-H ) :   0.9523 
B( 21-C , 22-H ) :   0.9361 B( 21-C , 23-H ) :   0.9509 B( 21-C , 24-H ) :   0.9524 
B( 25-C , 26-H ) :   0.9399 B( 25-C , 27-H ) :   0.9352 B( 25-C , 28-H ) :   0.9494 
B( 29-C , 30-H ) :   0.9363 B( 29-C , 31-H ) :   0.9507 B( 29-C , 32-H ) :   0.9524 
B( 33-C , 34-H ) :   0.9403 B( 33-C , 35-H ) :   0.9354 B( 33-C , 36-H ) :   0.9495 


-------
TIMINGS
-------

Total SCF time: 0 days 0 hours 2 min 27 sec 

Total time                  ....     147.042 sec
Sum of individual times     ....     140.297 sec  ( 95.4%)

SCF preparation             ....       0.111 sec  (  0.1%)
Fock matrix formation       ....     139.409 sec  ( 94.8%)
  Startup                   ....       0.011 sec  (  0.0% of F)
  Split-RI-J                ....      11.221 sec  (  8.0% of F)
  Chain of spheres X        ....     103.009 sec  ( 73.9% of F)
  XC integration            ....      31.645 sec  ( 22.7% of F)
    Basis function eval.    ....       5.386 sec  ( 17.0% of XC)
    Density eval.           ....      12.257 sec  ( 38.7% of XC)
    XC-Functional eval.     ....       1.358 sec  (  4.3% of XC)
    XC-Potential eval.      ....      11.636 sec  ( 36.8% of XC)
Diagonalization             ....       0.000 sec  (  0.0%)
Density matrix formation    ....       0.164 sec  (  0.1%)
Total Energy calculation    ....       0.066 sec  (  0.0%)
Population analysis         ....       0.039 sec  (  0.0%)
Orbital Transformation      ....       0.048 sec  (  0.0%)
Orbital Orthonormalization  ....       0.000 sec  (  0.0%)
DIIS solution               ....       0.316 sec  (  0.2%)
SOSCF solution              ....       0.144 sec  (  0.1%)
Finished LeanSCF after 147.1 sec

Maximum memory used throughout the entire LEANSCF-calculation: 47.1 MB


-------------------------------------------------------------------------------
                          DFT DISPERSION CORRECTION                            
                                                                               
                              DFTD3 V3.1  Rev 1                                
                          USING Becke-Johnson damping                          
-------------------------------------------------------------------------------
The TPSSH functional is recognized
Active option DFTDOPT                   ...         4   

molecular C6(AA) [au] = 12547.510766 


            DFT-D V3
 parameters
 s6 scaling factor         :     1.0000 
 a1 scaling factor         :     0.4529 
 s8 scaling factor         :     2.2382 
 a2 scaling factor         :     4.6550 
 ad hoc parameters k1-k3   :    16.0000     1.3333    -4.0000 

 Edisp/kcal,au: -33.088196072905  -0.052729391206 
 E6   /kcal   : -15.269199802 
 E8   /kcal   : -17.818996271 
 % E8         :  53.853030343 

-------------------------   ----------------
Dispersion correction           -0.052729391
-------------------------   ----------------


-------------------------   --------------------
FINAL SINGLE POINT ENERGY      -586.056075565667
-------------------------   --------------------


------------------------------------------------------------------------------
                              ORCA PROPERTY CALCULATIONS
------------------------------------------------------------------------------

GBWName                                 ... 1.gbw
Number of atoms                         ...     37
Number of basis functions               ...    320
Max core memory                         ...   3500 MB

Electric properties:
Dipole moment                           ... YES
Quadrupole moment                       ...  NO
Static polarizability (Dipole/Dipole)   ...  NO
Static polarizability (Dipole/Quad.)    ...  NO
Static polarizability (Quad./Quad.)     ...  NO
Static polarizability (Velocity)        ...  NO
Static hyperpolarizability              ...  NO

Atomic electric properties:
Dipole moment                           ...  NO
Quadrupole moment                       ...  NO
Static polarizability                   ...  NO

Choice of electric origin               ... Center of mass
Position of electric origin             ...    -1.716013     1.952023     2.943549

General magnetic properties:
Magnetizability                         ...  NO

EPR properties:
g-Tensor (aka g-matrix)                 ...  NO
Zero-Field splitting spin-orbit         ...  NO
Zero-field splitting spin-spin          ...  NO
Hyperfine couplings                     ...  NO (   0 nuclei)
Quadrupole couplings                    ...  NO (   0 nuclei)
Contact density                         ...  NO (   0 nuclei)

NMR properties:
Chemical shifts                         ...  NO (   0 nuclei)
Spin-rotation constants                 ...  NO (   0 nuclei)
Spin-spin couplings                     ...  NO (   0 nuclei,    0 pairs)

Choice of magnetic origin               ... GIAO
Position of magnetic origin             ...     0.000000     0.000000     0.000000

Properties with geometric perturbations:
SCF Hessian                             ...  NO
IR spectrum                             ...  NO
VCD spectrum                            ...  NO
X-ray spectroscopy properties:
SCF XES/XAS/RIXS spectra                ...  NO

SCF SOC stabilization energy            ...  NO
Diagonal Born-Oppenheimer correction    ...  NO

-------------
DIPOLE MOMENT
-------------

Method             : SCF
Type of density    : Electron Density
Multiplicity       :   1
Irrep              :   0
Energy             :  -586.0033461744611714 Eh
Basis              : AO
                                X                 Y                 Z
Electronic contribution:      0.079936852       0.007214516       0.018881503
Nuclear contribution   :     -0.081225132      -0.008004862      -0.020355917
                        -----------------------------------------
Total Dipole Moment    :     -0.001288280      -0.000790346      -0.001474414
                        -----------------------------------------
Magnitude (a.u.)       :      0.002111447
Magnitude (Debye)      :      0.005366872



--------------------
Rotational spectrum 
--------------------
 
Rotational constants in cm-1:             0.021944             0.018888             0.018879 
Rotational constants in MHz :           657.875588           566.257432           565.964083 

Dipole components along the rotational axes: 
x,y,z [a.u.] :    -0.000383    -0.000304     0.002054 
x,y,z [Debye]:    -0.000975    -0.000774     0.005221 

 

Dipole moment calculation done in   0.0 sec 

Maximum memory used throughout the entire PROP-calculation: 23.5 MB

--------------------------------
SUGGESTED CITATIONS FOR THIS RUN
--------------------------------

Below you find a list of papers that are relevant to this ORCA run
We neither can nor want to force you to cite these papers, but we appreciate if you do
You receive ORCA, which is the product of decades of hard work by many enthusiastic individuals, for free
The only thing we kindly ask in return is that you cite our papers,
We deeply appreciate it, if you show your appreciation for ORCA by not just citing the generic ORCA reference.

Please note that relegating all ORCA citations to the supporting information does *not* help us.
SI sections are not indexed - citations you put there will not count into any citation statistics
But we need these citations in order to attract the funding resources that allow us to do what we are doing

Therefore, if you are a happy ORCA user, please consider citing a few of the papers listed below in the main body of your paper

In addition to the list printed below, the program has created the file 1.bibtex that contains the list in bibtex format
You can import this file easily into all common literature databanks and citation aid programs


List of essential papers. We consider these as the minimum necessary citations

  1. Neese, F.
     Software update: the ORCA program system, version 6.0
     WIRES Comput. Molec. Sci. 2025 15(1), e70019
     doi.org/10.1002/wcms.7019

List of papers to cite with high priority. The work reported in these papers was absolutely
necessary for this run to complete.
Our perspective: the developers of density functionals and basis sets usually get cited in chemistry papers
Good! But without the algorithms to do something with them, the functionals or basis sets would not do anything.
Hence, in our opinion, the algorithm design and method developments papers are equally worthy of getting cited

  1. Neese, F.
     An improvement of the resolution of the identity approximation for the formation of the Coulomb matrix
     J. Comp. Chem. 2003 24(14), 1740-1747
     doi.org/10.1002/jcc.10318
  2. Neese, F.; Wennmohs, F.; Hansen, A.; Becker, U.
     Efficient, approximate and parallel Hartree-Fock and hybrid DFT calculations. A 'chain-of-spheres' algorithm for the Hartree-Fock exchange
     Chem. Phys. 2009 356(1-3), 98-109
     doi.org/10.1016/j.chemphys.2008.10.036
  3. Grimme, S.; Antony, J.; Ehrlich, S.; Krieg, H.
     A consistent and accurate ab initio parametrization of density functional dispersion correction (DFT-D) for the 94 elements H-Pu
     J. Chem. Phys. 2010 132 , 154104
     doi.org/10.1063/1.3382344
  4. Grimme, S.; Ehrlich, S.; Goerigk, L.
     Effect of the damping function in dispersion corrected density functional theory
     J. Comput. Chem. 2011 32(7), 1456-1465
     doi.org/10.1002/jcc.21759
  5. Helmich-Paris, B.; de Souza, B.; Neese, F.; Izsák, R.
     An improved chain of spheres for exchange algorithm
     J. Chem. Phys. 2021 155(10), 104109
     doi.org/10.1063/5.0058766
  6. Neese, F.
     The SHARK Integral Generation and Digestion System
     J. Comp. Chem. 2022 44(3), 381
     doi.org/10.1002/jcc.26942

List of suggested additional citations. These are papers that are important in the 'surrounding' of 
of this run, or papers that preceded the highly important papers. If you like your results we are grateful for a citation.

  1. Izsak, R.; Neese, F.
     An overlap fitted chain of spheres exchange method
     J. Chem. Phys. 2011 135 , 144105
     doi.org/10.1063/1.3646921
  2. Izsak, R.; Hansen, A.; Neese, F.
     The resolution of identity and chain of spheres approximations for the LPNO-CCSD singles Fock term
     Molec. Phys. 2012 110 , 2413-2417
     doi.org/10.1080/00268976.2012.687466
  3. Neese, F.
     The ORCA program system
     WIRES Comput. Molec. Sci. 2012 2(1), 73-78
     doi.org/10.1002/wcms.81
  4. Izsak, R.; Neese, F.; Klopper, W.
     Robust fitting techniques in the chain of spheres approximation to the Fock exchange: The role of the complementary space
     J. Chem. Phys. 2013 139 , 
     doi.org/10.1063/1.4819264
  5. Neese, F.
     Software update: the ORCA program system, version 4.0
     WIRES Comput. Molec. Sci. 2018 8(1), 1-6
     doi.org/10.1002/wcms.1327
  6. Neese, F.; Wennmohs, F.; Becker, U.; Riplinger, C.
     The ORCA quantum chemistry program package
     J. Chem. Phys. 2020 152(22), 224108
     doi.org/10.1063/5.0004608
  7. Neese, F.
     Software update: The ORCA program system—Version 5.0
     WIRES Comput. Molec. Sci. 2022 12(1), e1606
     doi.org/10.1002/wcms.1606

List of optional additional citations

  1. Neese, F.
     Approximate second-order SCF convergence for spin unrestricted wavefunctions
     Chem. Phys. Lett. 2000 325(1-3), 93-98
     doi.org/10.1016/s0009-2614(00)00662-x

Timings for individual modules:

Sum of individual times          ...      158.503 sec (=   2.642 min)
Startup calculation              ...        3.957 sec (=   0.066 min)   2.5 %
SCF iterations                   ...      154.452 sec (=   2.574 min)  97.4 %
Property calculations            ...        0.094 sec (=   0.002 min)   0.1 %
                             ****ORCA TERMINATED NORMALLY****
TOTAL RUN TIME: 0 days 0 hours 2 minutes 38 seconds 734 msec
