
                                 *****************
                                 * O   R   C   A *
                                 *****************

                                            #,                                       
                                            ###                                      
                                            ####                                     
                                            #####                                    
                                            ######                                   
                                           ########,                                 
                                     ,,################,,,,,                         
                               ,,#################################,,                 
                          ,,##########################################,,             
                       ,#########################################, ''#####,          
                    ,#############################################,,   '####,        
                  ,##################################################,,,,####,       
                ,###########''''           ''''###############################       
              ,#####''   ,,,,##########,,,,          '''####'''          '####       
            ,##' ,,,,###########################,,,                        '##       
           ' ,,###''''                  '''############,,,                           
         ,,##''                                '''############,,,,        ,,,,,,###''
      ,#''                                            '''#######################'''  
     '                                                          ''''####''''         
             ,#######,   #######,   ,#######,      ##                                
            ,#'     '#,  ##    ##  ,#'     '#,    #''#        ,####,    ,#,          
            ##       ##  ##   ,#'  ##            #'  '#       #'       ,# #          
            ##       ##  #######   ##           ,######,      #####,      #          
            '#,     ,#'  ##    ##  '#,     ,#' ,#      #,     #,   #      #          
             '#######'   ##     ##  '#######'  #'      '#     '####' #    #          



                #########################################################
                #                        -***-                          #
                #          Department of theory and spectroscopy        #
                #                                                       #
                #                      Frank Neese                      #
                #                                                       #
                #     Directorship, Architecture, Infrastructure        #
                #                    SHARK, DRIVERS                     #
                #        Core code/Algorithms in most modules           #
                #                                                       #
                #        Max Planck Institute fuer Kohlenforschung      #
                #                Kaiser Wilhelm Platz 1                 #
                #                 D-45470 Muelheim/Ruhr                 #
                #                      Germany                          #
                #                                                       #
                #                  All rights reserved                  #
                #                        -***-                          #
                #########################################################


                         Program Version 6.1.0  -  RELEASE   -


 With contributions from (in alphabetic order):
[Max-Planck-Institut fuer Kohlenforschung]                               
  Daniel Aravena         : Magnetic Suceptibility                        
  Michael Atanasov       : Ab Initio Ligand Field Theory (pilot matlab implementation)
  Alexander A. Auer      : GIAO ZORA, VPT2 properties, NMR spectrum      
  Ute Becker             : All parallelization in ORCA, NUMFREQ, NUMCALC 
  Giovanni Bistoni       : ED, misc. LED, open-shell LED, HFLD           
  Dmytro Bykov           : pre 5.0 version of the SCF Hessian            
  Marcos Casanova-Páez   : Triplet and SCS-CIS(D). UHF-(DLPNO)-IP/EA/STEOM-CCSD. UHF-CVS-IP/STEOM-CCSD   
  Vijay G. Chilkuri      : MRCI spin determinant printing, contributions to CSF-ICE 
  Pauline Colinet        : FMM embedding                                 
  Dipayan Datta          : RHF DLPNO-CCSD density                        
  Achintya Kumar Dutta   : EOM-CC, STEOM-CC                              
  Nicolas Foglia         : Exact transition moments, OPA infrastructure, MCD improvements    
  Dmitry Ganyushin       : Spin-Orbit,Spin-Spin,Magnetic field MRCI      
  Miquel Garcia-Rates    : C-PCM and meta-GGA Hessian, CCSD/C-PCM, Gaussian charge scheme 
  Tiago L. C. Gouveia    : GS-ROHF, GS-ROCIS                             
  Yang Guo               : DLPNO-NEVPT2, F12-NEVPT2, CIM, IAO-localization        
  Andreas Hansen         : Spin unrestricted coupled pair/coupled cluster methods 
  Ingolf Harden          : AUTO-CI MPn and infrastructure                
  Benjamin Helmich-Paris : MC-RPA, TRAH-(SCF,CASSCF), AVAS, COSX integrals, SCF dyn. polar., MC-PDFT, srDFT 
  Lee Huntington         : MR-EOM, pCC                                   
  Robert Izsak           : Overlap fitted RIJCOSX, COSX-SCS-MP3, EOM     
  Riya Kayal             : Wick's Theorem for AUTO-CI, AUTO-CI UHF-CCSDT 
  Emily Kempfer          : AUTO-CI RHF CISDT and CCSDT, approximate NEVPT4
  Christian Kollmar      : KDIIS, OOCD, Brueckner-CCSD(T), CCSD density, CASPT2, CASPT2-K, improved NEVPT2 
  Axel Koslowski         : Symmetry handling                             
  Simone Kossmann        : meta-GGA functionals, TD-DFT gradient, OOMP2, (MP2 Hessian; deprecated post 5.0) 
  Lucas Lang             : DCDCAS, Hyperfine gauge corrections, ICE-SOC+SSC
  Marvin Lechner         : AUTO-CI (C++ implementation), FIC-MRCC        
  Spencer Leger          : CASSCF response                               
  Dagmar Lenk            : GEPOL surface, SMD, ORCA-2-JSON               
  Dimitrios Liakos       : Extrapolation schemes; Compound Job, Property file
  Dimitrios Manganas     : Further ROCIS development; embedding schemes. LFT, Crystal Embedding 
  Dimitrios Pantazis     : SARC Basis sets                               
  Anastasios Papadopoulos: AUTO-CI, single reference methods and gradients 
  Taras Petrenko         : pre 6.0 DFT Hessian and TD-DFT gradient,  ECA, NRVS 
  Petra Pikulova         : Analytic Raman intensities                    
  Peter Pinski           : DLPNO-MP2, DLPNO-MP2 Gradient                 
  Shashank Vittal Rao    : ES-AILFT, MagRelax                            
  Christoph Reimann      : Effective Core Potentials                     
  Marius Retegan         : Local ZFS, SOC                                
  Christoph Riplinger    : Optimizer, TS searches, QM/MM, DLPNO-CCSD(T), (RO)-DLPNO pert. Triples 
  Michael Roemelt        : Original ROCIS implementation, recursive CI coupling coefficients
  Masaaki Saitow         : Open-shell DLPNO-CCSD energy and density      
  Barbara Sandhoefer     : DKH picture change effects                    
  Yorick L. A. Schmerwitz: GMF and freeze-and-release deltaSCF, NEB S-IDPP initial path                    
  Kantharuban Sivalingam : CASSCF convergence/infrastructure, NEVPT2, NEVPT3, NEVPT4(SD), FIC-MRCI and CEPA variants
  Bernardo de Souza      : ESD, SOC TD-DFT                               
  Georgi L. Stoychev     : AutoAux, RI-MP2 NMR, DLPNO-MP2 response, X2C  
  Van Anh Tran           : RI-MP2 g-tensors                              
  Willem Van den Heuvel  : Paramagnetic NMR                              
  Zikuan Wang            : NOTCH, Electric field optimization            
  Frank Wennmohs         : Technical directorship and infrastructure     
  Hang Xu                : AUTO-CI-Response properties                   
                                                                         
[FACCTs GmbH]                                                            
  Markus Bursch, Nicolas Foglia, Miquel Garcia-Rates, Ingolf Harden, Hagen Neugebauer, Anastasios Papadopoulos, 
  Christoph Riplinger, Bernardo de Souza, Georgi L. Stoychev                                                    
                                                                 
  APM, various basis sets, CI-OPT, improved COSX, DLPNO-Multilevel,           
  DOCKER, DRACO, updates on ESD, Fragmentator, GOAT, IRC, LR-CPCM, L-BFGS, MBIS, meta-GGA TD-DFT gradient, ML-optimized integration grids, 
  MM, NACMEs, nearIR, NEB, NEB-TS, NL-DFT gradient (VV10), 2- and 3-layer-ONIOM, interface openCOSMO-RS, QMMM,   
  Crystal-QMMM, RESP, rigid body optimization, SF, symmetry and pop. for TD-DFT, various functionals, SOLVATOR                                   
                                                                         
[Other institutions]                                                     
  V. Asgeirsson          : NEB                                           
  Christoph Bannwarth    : sTDA-DFT, sTD-DFT, PBEh-3c, B97-3c, D3        
  Giovanni Bistoni       : ETS/NOCV, ADLD/ADEX, COVALED                  
  Martin Brehm           : Molecular dynamics                            
  Ronald Cardenas        : ETS/NOCV                                      
  Martina Colucci        : COVALED                                       
  Sebastian Ehlert       : rSCAN, r2SCAN, r2SCAN-3c, D4, dhf basis sets  
  Marvin Friede          : D4 for Fr, Ra, Ac-Lr                          
  Lars Goerigk           : TD-DFT with DH, B97 family of functionals     
  Stefan Grimme          : VdW corrections, initial TS optimization, DFT functionals, gCP, sTDA/sTD-DF 
  Waldemar Hujo          : DFT-NL                                        
  H. Jonsson             : NEB                                           
  Holger Kruse           : gCP                                           
  Marcel Mueller         : wB97X-3c, vDZP basis set                      
  Hagen Neugebauer       : wr2SCAN, Native XTB                           
  Gianluca Regni         : ADLD/ADEX                                     
  Tobias Risthaus        : pre 6.0 range-separated hybrid DFT and stability analysis
  Lukas Wittmann         : regularized MP2, r2SCAN double-hybrids, wr2SCAN        
                                                                         
We gratefully acknowledge several colleagues who have allowed us to      
interface, adapt or use parts of their codes:                            
  Ed Valeev, F. Pavosevic, A. Kumar             : LibInt (2-el integral package), F12 methods 
  Garnet Chan, S. Sharma, J. Yang, R. Olivares  : DMRG                   
  Ulf Ekstrom                                   : XCFun DFT Library      
  Mihaly Kallay                                 : mrcc  (arbitrary order and MRCC methods)
  Frank Weinhold                                : gennbo (NPA and NBO analysis)           
  Simon Mueller                                 : openCOSMO-RS                            
  Christopher J. Cramer and Donald G. Truhlar   : smd solvation model                     
  S Lehtola, MJT Oliveira, MAL Marques          : LibXC Library                           
  Liviu Ungur et al                             : ANISO software                          


 Your calculation uses the libint2 library for the computation of 2-el integrals
 For citations please refer to: http://libint.valeyev.net

 Your ORCA version has been built with support for libXC version: 7.0.0
 For citations please refer to: https://libxc.gitlab.io

 This ORCA versions uses:
   CBLAS   interface :  Fast vector & matrix operations
   LAPACKE interface :  Fast linear algebra routines
   Shared memory     :  Shared parallel matrices


  ***********************************
  * Starting time: Fri Nov 14 01:22:51 2025
  * Host name:     PC_DF0114514
  * Process ID:    24320
  * Working dir.:  C:\Users\kgb14\Desktop\? ?? (9)
  ***********************************

NOTE: MaxCore=3500 MB was set to SCF,MP2,MDCI,CIPSI,MRCI,RASCI and CIS
      => If you want to overwrite this, your respective input block should be placed after the MaxCore statement
Your calculation utilizes the atom-pairwise dispersion correction
with the Becke-Johnson damping scheme (D3BJ)


Warning: RI is on but no J-basis has been assigned. Assigning Def2/J (nothing to worry about!)
================================================================================

----- Orbital basis set information -----
Your calculation utilizes the basis: def2-SVP
   F. Weigend and R. Ahlrichs, Phys. Chem. Chem. Phys. 7, 3297 (2005).

----- AuxJ basis set information -----
Your calculation utilizes the auxiliary basis: def2/J
   H-Rn: F. Weigend, Phys. Chem. Chem. Phys. 8, 1057 (2006).
   Fr-Lr: K. Eichkorn, F. Weigend, O. Treutler, R. Ahlrichs; Theor. Chem. Acc. 97, 119 (1997).

================================================================================
                                        WARNINGS
                       Please study these warnings very carefully!
================================================================================


================================================================================
                                       INPUT FILE
================================================================================
NAME = 6.inp
|  1> ! TPSSh D3BJ def2-SVP NormalSCF
|  2> #%pal nprocs 8 end
|  3> %maxcore 3500
|  4> 
|  5> * xyz 0 1
|  6> Ti          -0.08246487590713        0.46225070719598        0.55307819492373
|  7> Cl          -0.45942215890064       -0.38776571374921       -1.34193593495489
|  8> Cl          -0.59175132004333       -0.92495870552121        2.06037388676019
|  9> Cl          -1.24352276207280        2.20992527587250        0.78385815067117
| 10> Cl           1.96482111692390        0.95179843620194        0.70999570259980
| 11> **                         ****END OF INPUT****
================================================================================

                       ****************************
                       * Single Point Calculation *
                       ****************************

---------------------------------
CARTESIAN COORDINATES (ANGSTROEM)
---------------------------------
  Ti    -0.082465    0.462251    0.553078
  Cl    -0.459422   -0.387766   -1.341936
  Cl    -0.591751   -0.924959    2.060374
  Cl    -1.243523    2.209925    0.783858
  Cl     1.964821    0.951798    0.709996

----------------------------
CARTESIAN COORDINATES (A.U.)
----------------------------
  NO LB      ZA    FRAG     MASS         X           Y           Z
   0 Ti   22.0000    0    47.900   -0.155836    0.873527    1.045166
   1 Cl   17.0000    0    35.453   -0.868182   -0.732771   -2.535891
   2 Cl   17.0000    0    35.453   -1.118248   -1.747919    3.893542
   3 Cl   17.0000    0    35.453   -2.349917    4.176154    1.481277
   4 Cl   17.0000    0    35.453    3.712974    1.798638    1.341697

--------------------------------
INTERNAL COORDINATES (ANGSTROEM)
--------------------------------
 Ti     0   0   0     0.000000000000     0.00000000     0.00000000
 Cl     1   0   0     2.110853680746     0.00000000     0.00000000
 Cl     1   2   0     2.110844129618   109.47106951     0.00000000
 Cl     1   2   3     2.110848455243   109.47099408   240.00019932
 Cl     1   2   3     2.110843437973   109.47117501   120.00019096

---------------------------
INTERNAL COORDINATES (A.U.)
---------------------------
 Ti     0   0   0     0.000000000000     0.00000000     0.00000000
 Cl     1   0   0     3.988935365389     0.00000000     0.00000000
 Cl     1   2   0     3.988917316373   109.47106951     0.00000000
 Cl     1   2   3     3.988925490620   109.47099408   240.00019932
 Cl     1   2   3     3.988916009353   109.47117501   120.00019096

---------------------
BASIS SET INFORMATION
---------------------
There are 2 groups of distinct atoms

 Group   1 Type Ti  : 14s9p5d1f contracted to 5s3p2d1f pattern {63311/531/41/1}
 Group   2 Type Cl  : 10s7p1d contracted to 4s3p1d pattern {5311/511/1}

Atom   0Ti   basis set group =>   1
Atom   1Cl   basis set group =>   2
Atom   2Cl   basis set group =>   2
Atom   3Cl   basis set group =>   2
Atom   4Cl   basis set group =>   2
---------------------------------
AUXILIARY/J BASIS SET INFORMATION
---------------------------------
There are 2 groups of distinct atoms

 Group   1 Type Ti  : 19s5p5d3f3g contracted to 8s5p5d2f3g pattern {121111111/11111/11111/21/111}
 Group   2 Type Cl  : 14s5p5d2f1g contracted to 8s4p3d1f1g pattern {71111111/2111/311/2/1}

Atom   0Ti   basis set group =>   1
Atom   1Cl   basis set group =>   2
Atom   2Cl   basis set group =>   2
Atom   3Cl   basis set group =>   2
Atom   4Cl   basis set group =>   2
------------------------------------------------------------------------------
                             ORCA STARTUP CALCULATIONS
                           -- RI-GTO INTEGRALS CHOSEN --
------------------------------------------------------------------------------
------------------------------------------------------------------------------
                   ___                                                        
                  /   \      - P O W E R E D   B Y -                         
                 /     \                                                     
                 |  |  |   _    _      __       _____    __    __             
                 |  |  |  | |  | |    /  \     |  _  \  |  |  /  |          
                  \  \/   | |  | |   /    \    | | | |  |  | /  /          
                 / \  \   | |__| |  /  /\  \   | |_| |  |  |/  /          
                |  |  |   |  __  | /  /__\  \  |    /   |      \           
                |  |  |   | |  | | |   __   |  |    \   |  |\   \          
                \     /   | |  | | |  |  |  |  | |\  \  |  | \   \       
                 \___/    |_|  |_| |__|  |__|  |_| \__\ |__|  \__/        
                                                                              
                      - O R C A' S   B I G   F R I E N D -                    
                                      &                                       
                       - I N T E G R A L  F E E D E R -                       
                                                                              
 v1 FN, 2020, v2 2021, v3 2022-2024                                           
------------------------------------------------------------------------------


----------------------
SHARK INTEGRAL PACKAGE
----------------------

Number of atoms                             ...      5
Number of basis functions                   ...    103
Number of shells                            ...     43
Maximum angular momentum                    ...      3
Integral batch strategy                     ... SHARK/LIBINT Hybrid
RI-J (if used) integral strategy            ... SPLIT-RIJ (Revised 2003 algorithm where possible)
Printlevel                                  ...      1
Contraction scheme used                     ... SEGMENTED contraction
Prescreening option                         ... SCHWARTZ
   Thresh                                   ... 1.000e-10
   Tcut                                     ... 1.000e-11
   Tpresel                                  ... 1.000e-11 
Coulomb Range Separation                    ... NOT USED
Exchange Range Separation                   ... NOT USED
Multipole approximations                    ... NOT USED
Finite Nucleus Model                        ... NOT USED
CABS basis                                  ... NOT available
Auxiliary Coulomb fitting basis             ... AVAILABLE
   # of basis functions in Aux-J            ...    293
   # of shells in Aux-J                     ...     91
   Maximum angular momentum in Aux-J        ...      4
Auxiliary J/K fitting basis                 ... NOT available
Auxiliary Correlation fitting basis         ... NOT available
Auxiliary 'external' fitting basis          ... NOT available

Checking pre-screening integrals            ... done (  0.0 sec) Dimension = 43
   => SHARK Basis and OBASIS are compatible. Storing Pre-screening
Shell pair information
Shell pair cut-off parameter TPreSel        ...   1.0e-11
Total number of shell pairs                 ...       946
Shell pairs after pre-screening             ...       850
Total number of primitive shell pairs       ...      5283
Primitive shell pairs kept                  ...      3211
          la=0 lb=0:    195 shell pairs
          la=1 lb=0:    265 shell pairs
          la=1 lb=1:    110 shell pairs
          la=2 lb=0:    126 shell pairs
          la=2 lb=1:     90 shell pairs
          la=2 lb=2:     21 shell pairs
          la=3 lb=0:     21 shell pairs
          la=3 lb=1:     15 shell pairs
          la=3 lb=2:      6 shell pairs
          la=3 lb=3:      1 shell pairs

Checking whether 4 symmetric matrices of dimension 103 fit in memory
:Max Core in MB      =   3500.00
 MB in use           =      4.31
 MB left             =   3495.69
 MB needed           =      0.16
 Data fit in memory  = YES
Calculating RI/J V-Matrix + Cholesky decomp.... done (  0.0 sec)
Calculating Nuclear repulsion               ... done (  0.0 sec) ENN=    641.239114856834 Eh

Diagonalization of the overlap matrix:
Smallest eigenvalue                        ... 1.278e-02
Time for diagonalization                   ...    0.001 sec
Threshold for overlap eigenvalues          ... 1.000e-07
Number of eigenvalues below threshold      ... 0
Time for construction of square roots      ...    0.001 sec
Total time needed                          ...    0.002 sec

-------------------
DFT GRID GENERATION
-------------------

General Integration Accuracy     IntAcc      ... 4.388
Radial Grid Type                 RadialGrid  ... OptM3 with GC (2021)
Angular Grid (max. ang.)         AngularGrid ... 4 (Lebedev-302)
Angular grid pruning method      GridPruning ... 4 (adaptive)
Weight generation scheme         WeightScheme... mBecke (2022)
Basis function cutoff            BFCut       ... 1.0000e-10
Integration weight cutoff        WCut        ... 1.0000e-14
Partially contracted basis set               ... off
Rotationally invariant grid construction     ... off
Angular grids for H and He will be reduced by one unit
Core-polarized basis detected: some atoms will have their core
                               angular grid increased.

Total number of grid points                  ...    40707
Total number of batches                      ...      640
Average number of points per batch           ...       63
Average number of grid points per atom       ...     8141

--------------------
COSX GRID GENERATION
--------------------

GRIDX 1
-------
General Integration Accuracy     IntAcc      ... 3.816
Radial Grid Type                 RadialGrid  ... OptM3 with GC (2021)
Angular Grid (max. ang.)         AngularGrid ... 1 (Lebedev-50)
Angular grid pruning method      GridPruning ... 4 (adaptive)
Weight generation scheme         WeightScheme... mBecke (2022)
Basis function cutoff            BFCut       ... 1.0000e-10
Integration weight cutoff        WCut        ... 1.0000e-14
Partially contracted basis set               ... on
Rotationally invariant grid construction     ... off
Angular grids for H and He will be reduced by one unit
Core-polarized basis detected: some atoms will have their core
                               angular grid increased.

Total number of grid points                  ...    14121
Total number of batches                      ...      112
Average number of points per batch           ...      126
Average number of grid points per atom       ...     2824
UseSFitting                                  ... on

GRIDX 2
-------
General Integration Accuracy     IntAcc      ... 4.020
Radial Grid Type                 RadialGrid  ... OptM3 with GC (2021)
Angular Grid (max. ang.)         AngularGrid ... 2 (Lebedev-110)
Angular grid pruning method      GridPruning ... 4 (adaptive)
Weight generation scheme         WeightScheme... mBecke (2022)
Basis function cutoff            BFCut       ... 1.0000e-10
Integration weight cutoff        WCut        ... 1.0000e-14
Partially contracted basis set               ... on
Rotationally invariant grid construction     ... off
Angular grids for H and He will be reduced by one unit
Core-polarized basis detected: some atoms will have their core
                               angular grid increased.

Total number of grid points                  ...    14121
Total number of batches                      ...      112
Average number of points per batch           ...      126
Average number of grid points per atom       ...     2824
UseSFitting                                  ... on

GRIDX 3
-------
General Integration Accuracy     IntAcc      ... 4.338
Radial Grid Type                 RadialGrid  ... OptM3 with GC (2021)
Angular Grid (max. ang.)         AngularGrid ... 3 (Lebedev-194)
Angular grid pruning method      GridPruning ... 4 (adaptive)
Weight generation scheme         WeightScheme... mBecke (2022)
Basis function cutoff            BFCut       ... 1.0000e-10
Integration weight cutoff        WCut        ... 1.0000e-14
Partially contracted basis set               ... on
Rotationally invariant grid construction     ... off
Angular grids for H and He will be reduced by one unit
Core-polarized basis detected: some atoms will have their core
                               angular grid increased.

Total number of grid points                  ...    26175
Total number of batches                      ...      207
Average number of points per batch           ...      126
Average number of grid points per atom       ...     5235
UseSFitting                                  ... on
Grids setup in   0.4 sec
Initializing property integral containers    ... done (  0.0 sec)

SHARK setup successfully completed in   0.5 seconds

Maximum memory used throughout the entire STARTUP-calculation: 18.6 MB
-------------------------------------------------------------------------------
                                 ORCA GUESS
                   Start orbitals & Density for SCF / CASSCF
-------------------------------------------------------------------------------

------------
SCF SETTINGS
------------
Hamiltonian:
 Density Functional     Method          .... DFT(GTOs)
 Exchange Functional    Exchange        .... TPSS
 Correlation Functional Correlation     .... TPSS
 LDA part of GGA corr.  LDAOpt          .... PW91-LDA
 Gradients option       PostSCFGGA      .... off
 Hybrid DFT is turned on
   Fraction HF Exchange ScalHFX         ....  0.100000
   Scaling of DF-GGA-X  ScalDFX         ....  0.900000
   Scaling of DF-GGA-C  ScalDFC         ....  1.000000
   Scaling of DF-LDA-C  ScalLDAC        ....  1.000000
   Perturbative correction              ....  0.000000
   NL short-range parameter             ....  5.200000
 RI-approximation to the Coulomb term is turned on
   Number of AuxJ basis functions       .... 293
   RIJ-COSX (HFX calculated with COS-X)).... on


General Settings:
 Integral files         IntName         .... 6
 Hartree-Fock type      HFTyp           .... RHF
 Total Charge           Charge          ....    0
 Multiplicity           Mult            ....    1
 Number of Electrons    NEL             ....   90
 Basis Dimension        Dim             ....  103
 Nuclear Repulsion      ENuc            ....    641.2391148568 Eh

Convergence Acceleration:
 AO-DIIS                CNVDIIS         .... on
   Start iteration      DIISMaxIt       ....    12
   Startup error        DIISStart       ....  0.200000
   # of expansion vecs  DIISMaxEq       ....     5
   Bias factor          DIISBfac        ....   1.050
   Max. coefficient     DIISMaxC        ....  10.000
 MO-DIIS                CNVKDIIS        .... off
 Trust-Rad. Augm. Hess. CNVTRAH         .... auto
   Auto Start mean grad. ratio tolernc. ....  1.125000
   Auto Start start iteration           ....    50
   Auto Start num. interpolation iter.  ....    10
   Max. Number of Micro iterations      ....    24
   Max. Number of Macro iterations      .... Maxiter - #DIIS iter
   Number of Davidson start vectors     ....     2
   Converg. threshold    (grad. norm)   ....   5.000e-05
   Grad. Scal. Fac. for Micro threshold ....   0.100
   Minimum threshold for Micro iter.    ....   1.000e-02
   NR start threshold (gradient norm)   ....   1.000e-04
   Initial trust radius                 ....   0.400
   Minimum AH scaling param. (alpha)    ....   1.000
   Maximum AH scaling param. (alpha)    .... 1000.000
   Quad. conv. algorithm                .... NR
   White noise on init. David. guess    .... on
   Maximum white noise                  ....   0.010
   Pseudo random numbers                .... off
   Inactive MOs                         .... canonical
   Orbital update algorithm             .... Taylor
   Preconditioner                       .... Diag
   Full preconditioner red. dimension   ....   250
 SOSCF                 CNVSOSCF           .... on
   Start iteration     SOSCFMaxIt         ....   150
   Startup grad/error  SOSCFStart         ....  0.003300
   Hessian update      SOSCFHessUp        .... L-BFGS
   Autom. constraints  SOSCFAutoConstrain .... off
 Level Shifting         CNVShift        .... on
   Level shift para.    LevelShift      ....    0.2500
   Turn off err/grad.   ShiftErr        ....    0.0010
 Zerner damping         CNVZerner       .... off
 Static damping         CNVDamp         .... on
   Fraction old density DampFac         ....    0.7000
   Max. Damping (<1)    DampMax         ....    0.9800
   Min. Damping (>=0)   DampMin         ....    0.0000
   Turn off err/grad.   DampErr         ....    0.1000

SCF Procedure:
 Maximum # iterations   MaxIter         ....   125
 SCF integral mode      SCFMode         .... Direct
   Integral package                     .... SHARK and LIBINT hybrid scheme
 Reset frequency        DirectResetFreq ....    20
 Integral Threshold     Thresh          ....  1.000e-10 Eh
 Primitive CutOff       TCut            ....  1.000e-11 Eh

Convergence Tolerance:
 Convergence Check Mode ConvCheckMode   .... Total+1el-Energy
 Convergence forced     ConvForced      .... 0
 Energy Change          TolE            ....  1.000e-06 Eh
 1-El. energy change                    ....  1.000e-03 Eh
 Orbital Gradient       TolG            ....  5.000e-05
 Orbital Rotation angle TolX            ....  5.000e-05
 DIIS Error             TolErr          ....  1.000e-05

------------------------------
INITIAL GUESS: MODEL POTENTIAL
------------------------------
Loading Hartree-Fock densities                     ... done
Calculating cut-offs                               ... done
Initializing the effective Hamiltonian             ... done
Setting up the integral package (SHARK)            ... done
Starting the Coulomb interaction                   ... done (   0.0 sec)
Making the grid                                    ... done (   0.1 sec)
Mapping shells                                     ... done
Starting the XC term evaluation                    ... done (   0.1 sec)
  promolecular density results
     # of electrons  =     89.999377670
     EX              =   -150.520794125
     EC              =     -3.587360834
     EX+EC           =   -154.108154959
Transforming the Hamiltonian                       ... done (   0.0 sec)
Diagonalizing the Hamiltonian                      ... done (   0.0 sec)
Back transforming the eigenvectors                 ... done (   0.0 sec)
Now organizing SCF variables                       ... done
                      ------------------
                      INITIAL GUESS DONE (   0.2 sec)
                      ------------------
             **** ENERGY FILE WAS UPDATED (6.en.tmp) ****
Finished Guess after   0.3 sec
Maximum memory used throughout the entire GUESS-calculation: 9.9 MB

-------------------------------------------------------------------------------------------
                                      ORCA LEAN-SCF
                              memory conserving SCF solver
-------------------------------------------------------------------------------------------

----------------------------------------D-I-I-S--------------------------------------------
Iteration    Energy (Eh)           Delta-E    RMSDP     MaxDP     DIISErr   Damp  Time(sec)
-------------------------------------------------------------------------------------------
               ***  Starting incremental Fock matrix formation  ***
    1    -2689.8798086280066855     0.00e+00  3.36e-03  5.28e-02  7.89e-02  0.700   1.3
    2    -2689.9095375070619411    -2.97e-02  1.43e-03  2.53e-02  3.40e-02  0.700   1.1
                               ***Turning on AO-DIIS***
    3    -2689.9159287662114366    -6.39e-03  6.61e-04  1.24e-02  2.43e-02  0.700   1.0
    4    -2689.9232885531901047    -7.36e-03  1.33e-03  2.12e-02  1.87e-02  0.000   0.9
    5    -2689.9406164129713943    -1.73e-02  2.29e-04  3.05e-03  3.90e-03  0.000   1.0
                              *** Initializing SOSCF ***
---------------------------------------S-O-S-C-F--------------------------------------
Iteration    Energy (Eh)           Delta-E    RMSDP     MaxDP     MaxGrad    Time(sec)
--------------------------------------------------------------------------------------
    6    -2689.9407626503307256    -1.46e-04  5.66e-05  7.57e-04  6.55e-04     0.9
               *** Restarting incremental Fock matrix formation ***
    7    -2689.9407690367161194    -6.39e-06  4.05e-05  7.02e-04  2.36e-04     1.3
    8    -2689.9407696002244847    -5.64e-07  5.18e-05  7.96e-04  3.07e-04     0.9
                 **** Energy Check signals convergence ****

               *****************************************************
               *                     SUCCESS                       *
               *           SCF CONVERGED AFTER   8 CYCLES          *
               *****************************************************

Recomputing exchange energy using gridx3       ... done (    1.560 sec)
Old exchange energy                            :    -15.117872479 Eh
New exchange energy                            :    -15.117871291 Eh
Exchange energy change after final integration :      0.000001188 Eh
Total energy after final integration           :  -2689.940767104 Eh
             **** ENERGY FILE WAS UPDATED (6.en.tmp) ****

----------------
TOTAL SCF ENERGY
----------------

Total Energy       :      -2689.94076710424270 Eh          -73197.00954 eV

Components:
Nuclear Repulsion  :        641.23911485683425 Eh           17449.00341 eV
Electronic Energy  :      -3331.17988314922832 Eh          -90646.01297 eV
One Electron Energy:      -4983.06629699727728 Eh         -135596.12752 eV
Two Electron Energy:       1651.88641384804896 Eh           44950.11454 eV

Virial components:
Potential Energy   :      -5374.46471040869164 Eh         -146246.61980 eV
Kinetic Energy     :       2684.52394330444895 Eh           73049.61027 eV
Virial Ratio       :          2.00201779679161

DFT components:
N(Alpha)           :       45.000007951323 electrons
N(Beta)            :       45.000007951323 electrons
N(Total)           :       90.000015902645 electrons
E(X)               :     -136.491932694026 Eh       
E(C)               :       -3.624776081372 Eh       
E(XC)              :     -140.116708775398 Eh       

---------------
SCF CONVERGENCE
---------------

  Last Energy change         ...    5.6351e-07  Tolerance :   1.0000e-06
  Last MAX-Density change    ...    7.9622e-04  Tolerance :   1.0000e-05
  Last RMS-Density change    ...    5.1800e-05  Tolerance :   1.0000e-06
  Last DIIS Error            ...    6.5487e-04  Tolerance :   1.0000e-05
  Last Orbital Gradient      ...    3.0721e-04  Tolerance :   5.0000e-05
  Last Orbital Rotation      ...    8.2027e-04  Tolerance :   5.0000e-05


----------------
ORBITAL ENERGIES
----------------

  NO   OCC          E(Eh)            E(eV) 
   0   2.0000    -178.763448     -4864.4007 
   1   2.0000    -101.375715     -2758.5734 
   2   2.0000    -101.375625     -2758.5710 
   3   2.0000    -101.375601     -2758.5704 
   4   2.0000    -101.375586     -2758.5699 
   5   2.0000     -19.883093      -541.0465 
   6   2.0000     -16.581703      -451.2111 
   7   2.0000     -16.581702      -451.2110 
   8   2.0000     -16.581701      -451.2110 
   9   2.0000      -9.403989      -255.8955 
  10   2.0000      -9.403943      -255.8943 
  11   2.0000      -9.403924      -255.8938 
  12   2.0000      -9.403911      -255.8934 
  13   2.0000      -7.154302      -194.6785 
  14   2.0000      -7.154267      -194.6775 
  15   2.0000      -7.154231      -194.6765 
  16   2.0000      -7.154221      -194.6762 
  17   2.0000      -7.151765      -194.6094 
  18   2.0000      -7.151761      -194.6093 
  19   2.0000      -7.151753      -194.6091 
  20   2.0000      -7.151743      -194.6088 
  21   2.0000      -7.151740      -194.6087 
  22   2.0000      -7.151732      -194.6085 
  23   2.0000      -7.151728      -194.6084 
  24   2.0000      -7.151716      -194.6081 
  25   2.0000      -2.427283       -66.0497 
  26   2.0000      -1.546079       -42.0709 
  27   2.0000      -1.546076       -42.0709 
  28   2.0000      -1.546072       -42.0708 
  29   2.0000      -0.818646       -22.2765 
  30   2.0000      -0.805168       -21.9097 
  31   2.0000      -0.805162       -21.9096 
  32   2.0000      -0.805160       -21.9095 
  33   2.0000      -0.397154       -10.8071 
  34   2.0000      -0.388207       -10.5636 
  35   2.0000      -0.388202       -10.5635 
  36   2.0000      -0.388198       -10.5634 
  37   2.0000      -0.377818       -10.2809 
  38   2.0000      -0.377809       -10.2807 
  39   2.0000      -0.360509        -9.8100 
  40   2.0000      -0.360508        -9.8099 
  41   2.0000      -0.360503        -9.8098 
  42   2.0000      -0.325329        -8.8527 
  43   2.0000      -0.325327        -8.8526 
  44   2.0000      -0.325322        -8.8525 
  45   0.0000      -0.144229        -3.9247 
  46   0.0000      -0.144220        -3.9244 
  47   0.0000      -0.112725        -3.0674 
  48   0.0000      -0.112721        -3.0673 
  49   0.0000      -0.112719        -3.0672 
  50   0.0000      -0.001969        -0.0536 
  51   0.0000       0.169832         4.6214 
  52   0.0000       0.169844         4.6217 
  53   0.0000       0.169851         4.6219 
  54   0.0000       0.172368         4.6904 
  55   0.0000       0.432016        11.7557 
*Only the first 10 virtual orbitals were printed.

                    ********************************
                    * MULLIKEN POPULATION ANALYSIS *
                    ********************************

-----------------------
MULLIKEN ATOMIC CHARGES
-----------------------
   0 Ti:    0.598935
   1 Cl:   -0.149721
   2 Cl:   -0.149721
   3 Cl:   -0.149765
   4 Cl:   -0.149728
Sum of atomic charges:   -0.0000000

--------------------------------
MULLIKEN REDUCED ORBITAL CHARGES
--------------------------------
  0 Tis       :     6.242544  s :     6.242544
      pz      :     4.216643  p :    12.649939
      px      :     4.216628
      py      :     4.216669
      dz2     :     0.518934  d :     2.462608
      dxz     :     0.427618
      dyz     :     0.522209
      dx2y2   :     0.494426
      dxy     :     0.499422
      f0      :     0.006930  f :     0.045973
      f+1     :     0.005789
      f-1     :     0.007778
      f+2     :     0.005859
      f-2     :     0.005933
      f+3     :     0.006988
      f-3     :     0.006695

  1 Cls       :     5.945022  s :     5.945022
      pz      :     3.649293  p :    11.189484
      px      :     3.781178
      py      :     3.759013
      dz2     :     0.005352  d :     0.015215
      dxz     :     0.003463
      dyz     :     0.004530
      dx2y2   :     0.000930
      dxy     :     0.000940

  2 Cls       :     5.945018  s :     5.945018
      pz      :     3.699739  p :    11.189488
      px      :     3.776707
      py      :     3.713042
      dz2     :     0.003585  d :     0.015215
      dxz     :     0.002423
      dyz     :     0.004804
      dx2y2   :     0.002220
      dxy     :     0.002183

  3 Cls       :     5.945012  s :     5.945012
      pz      :     3.784655  p :    11.189537
      px      :     3.735021
      py      :     3.669862
      dz2     :     0.001860  d :     0.015215
      dxz     :     0.001318
      dyz     :     0.002953
      dx2y2   :     0.004179
      dxy     :     0.004904

  4 Cls       :     5.945016  s :     5.945016
      pz      :     3.785660  p :    11.189496
      px      :     3.626367
      py      :     3.777470
      dz2     :     0.001849  d :     0.015215
      dxz     :     0.003801
      dyz     :     0.000418
      dx2y2   :     0.004877
      dxy     :     0.004270



                     *******************************
                     * LOEWDIN POPULATION ANALYSIS *
                     *******************************

----------------------
LOEWDIN ATOMIC CHARGES
----------------------
   0 Ti:   -0.568153
   1 Cl:    0.142046
   2 Cl:    0.142043
   3 Cl:    0.142015
   4 Cl:    0.142050

-------------------------------
LOEWDIN REDUCED ORBITAL CHARGES
-------------------------------
  0 Tis       :     6.385916  s :     6.385916
      pz      :     4.339982  p :    13.019933
      px      :     4.339968
      py      :     4.339983
      dz2     :     0.651947  d :     3.055609
      dxz     :     0.510749
      dyz     :     0.657054
      dx2y2   :     0.614039
      dxy     :     0.621820
      f0      :     0.015725  f :     0.106695
      f+1     :     0.013444
      f-1     :     0.018866
      f+2     :     0.013288
      f-2     :     0.013407
      f+3     :     0.016767
      f-3     :     0.015199

  1 Cls       :     5.746668  s :     5.746668
      pz      :     3.628584  p :    11.096487
      px      :     3.743618
      py      :     3.724285
      dz2     :     0.005720  d :     0.014799
      dxz     :     0.002841
      dyz     :     0.004731
      dx2y2   :     0.000744
      dxy     :     0.000763

  2 Cls       :     5.746671  s :     5.746671
      pz      :     3.672587  p :    11.096488
      px      :     3.739724
      py      :     3.684176
      dz2     :     0.002932  d :     0.014799
      dxz     :     0.002103
      dyz     :     0.005846
      dx2y2   :     0.002021
      dxy     :     0.001896

  3 Cls       :     5.746669  s :     5.746669
      pz      :     3.746651  p :    11.096518
      px      :     3.703365
      py      :     3.646502
      dz2     :     0.002191  d :     0.014798
      dxz     :     0.001011
      dyz     :     0.002306
      dx2y2   :     0.003506
      dxy     :     0.005785

  4 Cls       :     5.746666  s :     5.746666
      pz      :     3.747528  p :    11.096485
      px      :     3.608571
      py      :     3.740386
      dz2     :     0.002214  d :     0.014799
      dxz     :     0.002886
      dyz     :     0.000329
      dx2y2   :     0.005654
      dxy     :     0.003716



                      *****************************
                      * MAYER POPULATION ANALYSIS *
                      *****************************

  NA   - Mulliken gross atomic population
  ZA   - Total nuclear charge
  QA   - Mulliken gross atomic charge
  VA   - Mayer's total valence
  BVA  - Mayer's bonded valence
  FA   - Mayer's free valence

  ATOM       NA         ZA         QA         VA         BVA        FA
  0 Ti    21.4011    22.0000     0.5989     5.3730     5.3730    -0.0000
  1 Cl    17.1497    17.0000    -0.1497     1.4501     1.4501    -0.0000
  2 Cl    17.1497    17.0000    -0.1497     1.4501     1.4501    -0.0000
  3 Cl    17.1498    17.0000    -0.1498     1.4500     1.4500    -0.0000
  4 Cl    17.1497    17.0000    -0.1497     1.4501     1.4501    -0.0000

  Mayer bond orders larger than 0.100000
B(  0-Ti,  1-Cl) :   1.3433 B(  0-Ti,  2-Cl) :   1.3433 B(  0-Ti,  3-Cl) :   1.3432 
B(  0-Ti,  4-Cl) :   1.3432 

-------
TIMINGS
-------

Total SCF time: 0 days 0 hours 0 min 10 sec 

Total time                  ....      10.918 sec
Sum of individual times     ....      10.019 sec  ( 91.8%)

SCF preparation             ....       0.060 sec  (  0.5%)
Fock matrix formation       ....       9.578 sec  ( 87.7%)
  Startup                   ....       0.004 sec  (  0.0% of F)
  Split-RI-J                ....       0.469 sec  (  4.9% of F)
  Chain of spheres X        ....       7.580 sec  ( 79.1% of F)
  XC integration            ....       2.297 sec  ( 24.0% of F)
    Basis function eval.    ....       0.417 sec  ( 18.2% of XC)
    Density eval.           ....       0.723 sec  ( 31.5% of XC)
    XC-Functional eval.     ....       0.266 sec  ( 11.6% of XC)
    XC-Potential eval.      ....       0.765 sec  ( 33.3% of XC)
Diagonalization             ....       0.000 sec  (  0.0%)
Density matrix formation    ....       0.103 sec  (  0.9%)
Total Energy calculation    ....       0.054 sec  (  0.5%)
Population analysis         ....       0.024 sec  (  0.2%)
Orbital Transformation      ....       0.016 sec  (  0.1%)
Orbital Orthonormalization  ....       0.000 sec  (  0.0%)
DIIS solution               ....       0.134 sec  (  1.2%)
SOSCF solution              ....       0.050 sec  (  0.5%)
Finished LeanSCF after  11.0 sec

Maximum memory used throughout the entire LEANSCF-calculation: 11.5 MB


-------------------------------------------------------------------------------
                          DFT DISPERSION CORRECTION                            
                                                                               
                              DFTD3 V3.1  Rev 1                                
                          USING Becke-Johnson damping                          
-------------------------------------------------------------------------------
The TPSSH functional is recognized
Active option DFTDOPT                   ...         4   

molecular C6(AA) [au] = 3082.405441 


            DFT-D V3
 parameters
 s6 scaling factor         :     1.0000 
 a1 scaling factor         :     0.4529 
 s8 scaling factor         :     2.2382 
 a2 scaling factor         :     4.6550 
 ad hoc parameters k1-k3   :    16.0000     1.3333    -4.0000 

 Edisp/kcal,au: -7.126964926190  -0.011357540341 
 E6   /kcal   :  -2.396507418 
 E8   /kcal   :  -4.730457508 
 % E8         :  66.374081488 

-------------------------   ----------------
Dispersion correction           -0.011357540
-------------------------   ----------------


-------------------------   --------------------
FINAL SINGLE POINT ENERGY     -2689.952124644583
-------------------------   --------------------


------------------------------------------------------------------------------
                              ORCA PROPERTY CALCULATIONS
------------------------------------------------------------------------------

GBWName                                 ... 6.gbw
Number of atoms                         ...      5
Number of basis functions               ...    103
Max core memory                         ...   3500 MB

Electric properties:
Dipole moment                           ... YES
Quadrupole moment                       ...  NO
Static polarizability (Dipole/Dipole)   ...  NO
Static polarizability (Dipole/Quad.)    ...  NO
Static polarizability (Quad./Quad.)     ...  NO
Static polarizability (Velocity)        ...  NO
Static hyperpolarizability              ...  NO

Atomic electric properties:
Dipole moment                           ...  NO
Quadrupole moment                       ...  NO
Static polarizability                   ...  NO

Choice of electric origin               ... Center of mass
Position of electric origin             ...    -0.155842     0.873526     1.045159

General magnetic properties:
Magnetizability                         ...  NO

EPR properties:
g-Tensor (aka g-matrix)                 ...  NO
Zero-Field splitting spin-orbit         ...  NO
Zero-field splitting spin-spin          ...  NO
Hyperfine couplings                     ...  NO (   0 nuclei)
Quadrupole couplings                    ...  NO (   0 nuclei)
Contact density                         ...  NO (   0 nuclei)

NMR properties:
Chemical shifts                         ...  NO (   0 nuclei)
Spin-rotation constants                 ...  NO (   0 nuclei)
Spin-spin couplings                     ...  NO (   0 nuclei,    0 pairs)

Choice of magnetic origin               ... GIAO
Position of magnetic origin             ...     0.000000     0.000000     0.000000

Properties with geometric perturbations:
SCF Hessian                             ...  NO
IR spectrum                             ...  NO
VCD spectrum                            ...  NO
X-ray spectroscopy properties:
SCF XES/XAS/RIXS spectra                ...  NO

SCF SOC stabilization energy            ...  NO
Diagonal Born-Oppenheimer correction    ...  NO

-------------
DIPOLE MOMENT
-------------

Method             : SCF
Type of density    : Electron Density
Multiplicity       :   1
Irrep              :   0
Energy             : -2689.9407671042426955 Eh
Basis              : AO
                                X                 Y                 Z
Electronic contribution:     -0.000072542      -0.000069046       0.000005057
Nuclear contribution   :     -0.000005342      -0.000001209      -0.000007173
                        -----------------------------------------
Total Dipole Moment    :     -0.000077885      -0.000070255      -0.000002117
                        -----------------------------------------
Magnitude (a.u.)       :      0.000104911
Magnitude (Debye)      :      0.000266662



--------------------
Rotational spectrum 
--------------------
 
Rotational constants in cm-1:             0.040019             0.040019             0.040019 
Rotational constants in MHz :          1199.725707          1199.725537          1199.724650 

Dipole components along the rotational axes: 
x,y,z [a.u.] :    -0.000049    -0.000077     0.000052 
x,y,z [Debye]:    -0.000125    -0.000195     0.000132 

 

Dipole moment calculation done in   0.0 sec 

Maximum memory used throughout the entire PROP-calculation: 6.6 MB

--------------------------------
SUGGESTED CITATIONS FOR THIS RUN
--------------------------------

Below you find a list of papers that are relevant to this ORCA run
We neither can nor want to force you to cite these papers, but we appreciate if you do
You receive ORCA, which is the product of decades of hard work by many enthusiastic individuals, for free
The only thing we kindly ask in return is that you cite our papers,
We deeply appreciate it, if you show your appreciation for ORCA by not just citing the generic ORCA reference.

Please note that relegating all ORCA citations to the supporting information does *not* help us.
SI sections are not indexed - citations you put there will not count into any citation statistics
But we need these citations in order to attract the funding resources that allow us to do what we are doing

Therefore, if you are a happy ORCA user, please consider citing a few of the papers listed below in the main body of your paper

In addition to the list printed below, the program has created the file 6.bibtex that contains the list in bibtex format
You can import this file easily into all common literature databanks and citation aid programs


List of essential papers. We consider these as the minimum necessary citations

  1. Neese, F.
     Software update: the ORCA program system, version 6.0
     WIRES Comput. Molec. Sci. 2025 15(1), e70019
     doi.org/10.1002/wcms.7019

List of papers to cite with high priority. The work reported in these papers was absolutely
necessary for this run to complete.
Our perspective: the developers of density functionals and basis sets usually get cited in chemistry papers
Good! But without the algorithms to do something with them, the functionals or basis sets would not do anything.
Hence, in our opinion, the algorithm design and method developments papers are equally worthy of getting cited

  1. Neese, F.
     An improvement of the resolution of the identity approximation for the formation of the Coulomb matrix
     J. Comp. Chem. 2003 24(14), 1740-1747
     doi.org/10.1002/jcc.10318
  2. Neese, F.; Wennmohs, F.; Hansen, A.; Becker, U.
     Efficient, approximate and parallel Hartree-Fock and hybrid DFT calculations. A 'chain-of-spheres' algorithm for the Hartree-Fock exchange
     Chem. Phys. 2009 356(1-3), 98-109
     doi.org/10.1016/j.chemphys.2008.10.036
  3. Grimme, S.; Antony, J.; Ehrlich, S.; Krieg, H.
     A consistent and accurate ab initio parametrization of density functional dispersion correction (DFT-D) for the 94 elements H-Pu
     J. Chem. Phys. 2010 132 , 154104
     doi.org/10.1063/1.3382344
  4. Grimme, S.; Ehrlich, S.; Goerigk, L.
     Effect of the damping function in dispersion corrected density functional theory
     J. Comput. Chem. 2011 32(7), 1456-1465
     doi.org/10.1002/jcc.21759
  5. Helmich-Paris, B.; de Souza, B.; Neese, F.; Izsák, R.
     An improved chain of spheres for exchange algorithm
     J. Chem. Phys. 2021 155(10), 104109
     doi.org/10.1063/5.0058766
  6. Neese, F.
     The SHARK Integral Generation and Digestion System
     J. Comp. Chem. 2022 44(3), 381
     doi.org/10.1002/jcc.26942

List of suggested additional citations. These are papers that are important in the 'surrounding' of 
of this run, or papers that preceded the highly important papers. If you like your results we are grateful for a citation.

  1. Izsak, R.; Neese, F.
     An overlap fitted chain of spheres exchange method
     J. Chem. Phys. 2011 135 , 144105
     doi.org/10.1063/1.3646921
  2. Izsak, R.; Hansen, A.; Neese, F.
     The resolution of identity and chain of spheres approximations for the LPNO-CCSD singles Fock term
     Molec. Phys. 2012 110 , 2413-2417
     doi.org/10.1080/00268976.2012.687466
  3. Neese, F.
     The ORCA program system
     WIRES Comput. Molec. Sci. 2012 2(1), 73-78
     doi.org/10.1002/wcms.81
  4. Izsak, R.; Neese, F.; Klopper, W.
     Robust fitting techniques in the chain of spheres approximation to the Fock exchange: The role of the complementary space
     J. Chem. Phys. 2013 139 , 
     doi.org/10.1063/1.4819264
  5. Neese, F.
     Software update: the ORCA program system, version 4.0
     WIRES Comput. Molec. Sci. 2018 8(1), 1-6
     doi.org/10.1002/wcms.1327
  6. Neese, F.; Wennmohs, F.; Becker, U.; Riplinger, C.
     The ORCA quantum chemistry program package
     J. Chem. Phys. 2020 152(22), 224108
     doi.org/10.1063/5.0004608
  7. Neese, F.
     Software update: The ORCA program system—Version 5.0
     WIRES Comput. Molec. Sci. 2022 12(1), e1606
     doi.org/10.1002/wcms.1606

List of optional additional citations

  1. Neese, F.
     Approximate second-order SCF convergence for spin unrestricted wavefunctions
     Chem. Phys. Lett. 2000 325(1-3), 93-98
     doi.org/10.1016/s0009-2614(00)00662-x

Timings for individual modules:

Sum of individual times          ...       11.813 sec (=   0.197 min)
Startup calculation              ...        0.499 sec (=   0.008 min)   4.2 %
SCF iterations                   ...       11.266 sec (=   0.188 min)  95.4 %
Property calculations            ...        0.048 sec (=   0.001 min)   0.4 %
                             ****ORCA TERMINATED NORMALLY****
TOTAL RUN TIME: 0 days 0 hours 0 minutes 11 seconds 984 msec
