
                                 *****************
                                 * O   R   C   A *
                                 *****************

                                            #,                                       
                                            ###                                      
                                            ####                                     
                                            #####                                    
                                            ######                                   
                                           ########,                                 
                                     ,,################,,,,,                         
                               ,,#################################,,                 
                          ,,##########################################,,             
                       ,#########################################, ''#####,          
                    ,#############################################,,   '####,        
                  ,##################################################,,,,####,       
                ,###########''''           ''''###############################       
              ,#####''   ,,,,##########,,,,          '''####'''          '####       
            ,##' ,,,,###########################,,,                        '##       
           ' ,,###''''                  '''############,,,                           
         ,,##''                                '''############,,,,        ,,,,,,###''
      ,#''                                            '''#######################'''  
     '                                                          ''''####''''         
             ,#######,   #######,   ,#######,      ##                                
            ,#'     '#,  ##    ##  ,#'     '#,    #''#        ,####,    ,#,          
            ##       ##  ##   ,#'  ##            #'  '#       #'       ,# #          
            ##       ##  #######   ##           ,######,      #####,      #          
            '#,     ,#'  ##    ##  '#,     ,#' ,#      #,     #,   #      #          
             '#######'   ##     ##  '#######'  #'      '#     '####' #    #          



                #########################################################
                #                        -***-                          #
                #          Department of theory and spectroscopy        #
                #                                                       #
                #                      Frank Neese                      #
                #                                                       #
                #     Directorship, Architecture, Infrastructure        #
                #                    SHARK, DRIVERS                     #
                #        Core code/Algorithms in most modules           #
                #                                                       #
                #        Max Planck Institute fuer Kohlenforschung      #
                #                Kaiser Wilhelm Platz 1                 #
                #                 D-45470 Muelheim/Ruhr                 #
                #                      Germany                          #
                #                                                       #
                #                  All rights reserved                  #
                #                        -***-                          #
                #########################################################


                         Program Version 6.1.0  -  RELEASE   -


 With contributions from (in alphabetic order):
[Max-Planck-Institut fuer Kohlenforschung]                               
  Daniel Aravena         : Magnetic Suceptibility                        
  Michael Atanasov       : Ab Initio Ligand Field Theory (pilot matlab implementation)
  Alexander A. Auer      : GIAO ZORA, VPT2 properties, NMR spectrum      
  Ute Becker             : All parallelization in ORCA, NUMFREQ, NUMCALC 
  Giovanni Bistoni       : ED, misc. LED, open-shell LED, HFLD           
  Dmytro Bykov           : pre 5.0 version of the SCF Hessian            
  Marcos Casanova-Páez   : Triplet and SCS-CIS(D). UHF-(DLPNO)-IP/EA/STEOM-CCSD. UHF-CVS-IP/STEOM-CCSD   
  Vijay G. Chilkuri      : MRCI spin determinant printing, contributions to CSF-ICE 
  Pauline Colinet        : FMM embedding                                 
  Dipayan Datta          : RHF DLPNO-CCSD density                        
  Achintya Kumar Dutta   : EOM-CC, STEOM-CC                              
  Nicolas Foglia         : Exact transition moments, OPA infrastructure, MCD improvements    
  Dmitry Ganyushin       : Spin-Orbit,Spin-Spin,Magnetic field MRCI      
  Miquel Garcia-Rates    : C-PCM and meta-GGA Hessian, CCSD/C-PCM, Gaussian charge scheme 
  Tiago L. C. Gouveia    : GS-ROHF, GS-ROCIS                             
  Yang Guo               : DLPNO-NEVPT2, F12-NEVPT2, CIM, IAO-localization        
  Andreas Hansen         : Spin unrestricted coupled pair/coupled cluster methods 
  Ingolf Harden          : AUTO-CI MPn and infrastructure                
  Benjamin Helmich-Paris : MC-RPA, TRAH-(SCF,CASSCF), AVAS, COSX integrals, SCF dyn. polar., MC-PDFT, srDFT 
  Lee Huntington         : MR-EOM, pCC                                   
  Robert Izsak           : Overlap fitted RIJCOSX, COSX-SCS-MP3, EOM     
  Riya Kayal             : Wick's Theorem for AUTO-CI, AUTO-CI UHF-CCSDT 
  Emily Kempfer          : AUTO-CI RHF CISDT and CCSDT, approximate NEVPT4
  Christian Kollmar      : KDIIS, OOCD, Brueckner-CCSD(T), CCSD density, CASPT2, CASPT2-K, improved NEVPT2 
  Axel Koslowski         : Symmetry handling                             
  Simone Kossmann        : meta-GGA functionals, TD-DFT gradient, OOMP2, (MP2 Hessian; deprecated post 5.0) 
  Lucas Lang             : DCDCAS, Hyperfine gauge corrections, ICE-SOC+SSC
  Marvin Lechner         : AUTO-CI (C++ implementation), FIC-MRCC        
  Spencer Leger          : CASSCF response                               
  Dagmar Lenk            : GEPOL surface, SMD, ORCA-2-JSON               
  Dimitrios Liakos       : Extrapolation schemes; Compound Job, Property file
  Dimitrios Manganas     : Further ROCIS development; embedding schemes. LFT, Crystal Embedding 
  Dimitrios Pantazis     : SARC Basis sets                               
  Anastasios Papadopoulos: AUTO-CI, single reference methods and gradients 
  Taras Petrenko         : pre 6.0 DFT Hessian and TD-DFT gradient,  ECA, NRVS 
  Petra Pikulova         : Analytic Raman intensities                    
  Peter Pinski           : DLPNO-MP2, DLPNO-MP2 Gradient                 
  Shashank Vittal Rao    : ES-AILFT, MagRelax                            
  Christoph Reimann      : Effective Core Potentials                     
  Marius Retegan         : Local ZFS, SOC                                
  Christoph Riplinger    : Optimizer, TS searches, QM/MM, DLPNO-CCSD(T), (RO)-DLPNO pert. Triples 
  Michael Roemelt        : Original ROCIS implementation, recursive CI coupling coefficients
  Masaaki Saitow         : Open-shell DLPNO-CCSD energy and density      
  Barbara Sandhoefer     : DKH picture change effects                    
  Yorick L. A. Schmerwitz: GMF and freeze-and-release deltaSCF, NEB S-IDPP initial path                    
  Kantharuban Sivalingam : CASSCF convergence/infrastructure, NEVPT2, NEVPT3, NEVPT4(SD), FIC-MRCI and CEPA variants
  Bernardo de Souza      : ESD, SOC TD-DFT                               
  Georgi L. Stoychev     : AutoAux, RI-MP2 NMR, DLPNO-MP2 response, X2C  
  Van Anh Tran           : RI-MP2 g-tensors                              
  Willem Van den Heuvel  : Paramagnetic NMR                              
  Zikuan Wang            : NOTCH, Electric field optimization            
  Frank Wennmohs         : Technical directorship and infrastructure     
  Hang Xu                : AUTO-CI-Response properties                   
                                                                         
[FACCTs GmbH]                                                            
  Markus Bursch, Nicolas Foglia, Miquel Garcia-Rates, Ingolf Harden, Hagen Neugebauer, Anastasios Papadopoulos, 
  Christoph Riplinger, Bernardo de Souza, Georgi L. Stoychev                                                    
                                                                 
  APM, various basis sets, CI-OPT, improved COSX, DLPNO-Multilevel,           
  DOCKER, DRACO, updates on ESD, Fragmentator, GOAT, IRC, LR-CPCM, L-BFGS, MBIS, meta-GGA TD-DFT gradient, ML-optimized integration grids, 
  MM, NACMEs, nearIR, NEB, NEB-TS, NL-DFT gradient (VV10), 2- and 3-layer-ONIOM, interface openCOSMO-RS, QMMM,   
  Crystal-QMMM, RESP, rigid body optimization, SF, symmetry and pop. for TD-DFT, various functionals, SOLVATOR                                   
                                                                         
[Other institutions]                                                     
  V. Asgeirsson          : NEB                                           
  Christoph Bannwarth    : sTDA-DFT, sTD-DFT, PBEh-3c, B97-3c, D3        
  Giovanni Bistoni       : ETS/NOCV, ADLD/ADEX, COVALED                  
  Martin Brehm           : Molecular dynamics                            
  Ronald Cardenas        : ETS/NOCV                                      
  Martina Colucci        : COVALED                                       
  Sebastian Ehlert       : rSCAN, r2SCAN, r2SCAN-3c, D4, dhf basis sets  
  Marvin Friede          : D4 for Fr, Ra, Ac-Lr                          
  Lars Goerigk           : TD-DFT with DH, B97 family of functionals     
  Stefan Grimme          : VdW corrections, initial TS optimization, DFT functionals, gCP, sTDA/sTD-DF 
  Waldemar Hujo          : DFT-NL                                        
  H. Jonsson             : NEB                                           
  Holger Kruse           : gCP                                           
  Marcel Mueller         : wB97X-3c, vDZP basis set                      
  Hagen Neugebauer       : wr2SCAN, Native XTB                           
  Gianluca Regni         : ADLD/ADEX                                     
  Tobias Risthaus        : pre 6.0 range-separated hybrid DFT and stability analysis
  Lukas Wittmann         : regularized MP2, r2SCAN double-hybrids, wr2SCAN        
                                                                         
We gratefully acknowledge several colleagues who have allowed us to      
interface, adapt or use parts of their codes:                            
  Ed Valeev, F. Pavosevic, A. Kumar             : LibInt (2-el integral package), F12 methods 
  Garnet Chan, S. Sharma, J. Yang, R. Olivares  : DMRG                   
  Ulf Ekstrom                                   : XCFun DFT Library      
  Mihaly Kallay                                 : mrcc  (arbitrary order and MRCC methods)
  Frank Weinhold                                : gennbo (NPA and NBO analysis)           
  Simon Mueller                                 : openCOSMO-RS                            
  Christopher J. Cramer and Donald G. Truhlar   : smd solvation model                     
  S Lehtola, MJT Oliveira, MAL Marques          : LibXC Library                           
  Liviu Ungur et al                             : ANISO software                          


 Your calculation uses the libint2 library for the computation of 2-el integrals
 For citations please refer to: http://libint.valeyev.net

 Your ORCA version has been built with support for libXC version: 7.0.0
 For citations please refer to: https://libxc.gitlab.io

 This ORCA versions uses:
   CBLAS   interface :  Fast vector & matrix operations
   LAPACKE interface :  Fast linear algebra routines
   Shared memory     :  Shared parallel matrices


  ***********************************
  * Starting time: Fri Nov 14 01:29:19 2025
  * Host name:     PC_DF0114514
  * Process ID:    3500
  * Working dir.:  C:\Users\kgb14\Desktop\? ?? (9)
  ***********************************

NOTE: MaxCore=3500 MB was set to SCF,MP2,MDCI,CIPSI,MRCI,RASCI and CIS
      => If you want to overwrite this, your respective input block should be placed after the MaxCore statement
Your calculation utilizes the atom-pairwise dispersion correction
with the Becke-Johnson damping scheme (D3BJ)


Warning: RI is on but no J-basis has been assigned. Assigning Def2/J (nothing to worry about!)
================================================================================

----- Orbital basis set information -----
Your calculation utilizes the basis: def2-SVP
   F. Weigend and R. Ahlrichs, Phys. Chem. Chem. Phys. 7, 3297 (2005).

----- AuxJ basis set information -----
Your calculation utilizes the auxiliary basis: def2/J
   H-Rn: F. Weigend, Phys. Chem. Chem. Phys. 8, 1057 (2006).
   Fr-Lr: K. Eichkorn, F. Weigend, O. Treutler, R. Ahlrichs; Theor. Chem. Acc. 97, 119 (1997).

================================================================================
                                        WARNINGS
                       Please study these warnings very carefully!
================================================================================


================================================================================
                                       INPUT FILE
================================================================================
NAME = 9.inp
|  1> ! TPSSh D3BJ def2-SVP NormalSCF
|  2> #%pal nprocs 8 end
|  3> %maxcore 3500
|  4> 
|  5> * xyz 0 1
|  6> Al           2.86351565644195        1.12830623815096        1.59702488428559
|  7> C            4.46726580413693        1.01713719142366        0.41465226522638
|  8> C            1.31247611781390       -0.08959825036285        1.29147571116021
|  9> C            2.82945558250784        2.42624529740151        3.11246852876847
| 10> H            4.98972585834861        1.97601104890777        0.32788963443201
| 11> H            5.20805498118737        0.30040335369387        0.78386849271318
| 12> H            4.21549566559685        0.69660420710602       -0.60211566509369
| 13> H            0.36319874605935        0.35455972121980        1.61013646310036
| 14> H            1.40706895249072       -1.03084888153450        1.84275420124300
| 15> H            1.19902930672972       -0.36534977209731        0.23742376777516
| 16> H            1.81426238606234        2.75818493978894        3.35563480545586
| 17> H            3.41945373855833        3.32573945314499        2.90567543022220
| 18> H            3.23849720406610        2.00067545315707        4.03463148071118
| 19> **                         ****END OF INPUT****
================================================================================

                       ****************************
                       * Single Point Calculation *
                       ****************************

---------------------------------
CARTESIAN COORDINATES (ANGSTROEM)
---------------------------------
  Al     2.863516    1.128306    1.597025
  C      4.467266    1.017137    0.414652
  C      1.312476   -0.089598    1.291476
  C      2.829456    2.426245    3.112469
  H      4.989726    1.976011    0.327890
  H      5.208055    0.300403    0.783868
  H      4.215496    0.696604   -0.602116
  H      0.363199    0.354560    1.610136
  H      1.407069   -1.030849    1.842754
  H      1.199029   -0.365350    0.237424
  H      1.814262    2.758185    3.355635
  H      3.419454    3.325739    2.905675
  H      3.238497    2.000675    4.034631

----------------------------
CARTESIAN COORDINATES (A.U.)
----------------------------
  NO LB      ZA    FRAG     MASS         X           Y           Z
   0 Al   13.0000    0    26.982    5.411260    2.132190    3.017940
   1 C     6.0000    0    12.011    8.441909    1.922111    0.783579
   2 C     6.0000    0    12.011    2.480220   -0.169316    2.440535
   3 C     6.0000    0    12.011    5.346896    4.584939    5.881713
   4 H     1.0000    0     1.008    9.429215    3.734120    0.619622
   5 H     1.0000    0     1.008    9.841798    0.567680    1.481297
   6 H     1.0000    0     1.008    7.966132    1.316391   -1.137834
   7 H     1.0000    0     1.008    0.686346    0.670021    3.042717
   8 H     1.0000    0     1.008    2.658975   -1.948022    3.482301
   9 H     1.0000    0     1.008    2.265837   -0.690411    0.448666
  10 H     1.0000    0     1.008    3.428459    5.212214    6.341231
  11 H     1.0000    0     1.008    6.461831    6.284737    5.490931
  12 H     1.0000    0     1.008    6.119873    3.780729    7.624349

--------------------------------
INTERNAL COORDINATES (ANGSTROEM)
--------------------------------
 Al     0   0   0     0.000000000000     0.00000000     0.00000000
 C      1   0   0     1.995589663103     0.00000000     0.00000000
 C      1   2   0     1.995588958360   119.99377501     0.00000000
 C      1   2   3     1.995588968142   119.99244482   178.49006731
 H      2   1   3     1.095413774295   112.42454096   151.28088499
 H      2   1   3     1.094895712669   112.35870141   270.87128303
 H      2   1   3     1.095420750590   112.42925194    30.45975066
 H      3   1   2     1.095421611560   112.42931855   208.93319335
 H      3   1   2     1.094901150187   112.35930845    89.34379225
 H      3   1   2     1.095415254613   112.42395452   329.75368320
 H      4   1   2     1.095413616136   112.42556531   151.33933774
 H      4   1   2     1.095422724781   112.42792514    30.51869693
 H      4   1   2     1.094901479784   112.35921103   270.93213110

---------------------------
INTERNAL COORDINATES (A.U.)
---------------------------
 Al     0   0   0     0.000000000000     0.00000000     0.00000000
 C      1   0   0     3.771117938949     0.00000000     0.00000000
 C      1   2   0     3.771116607177   119.99377501     0.00000000
 C      1   2   3     3.771116625662   119.99244482   178.49006731
 H      2   1   3     2.070032036743   112.42454096   151.28088499
 H      2   1   3     2.069053042149   112.35870141   270.87128303
 H      2   1   3     2.070045220030   112.42925194    30.45975066
 H      3   1   2     2.070046847027   112.42931855   208.93319335
 H      3   1   2     2.069063317569   112.35930845    89.34379225
 H      3   1   2     2.070034834137   112.42395452   329.75368320
 H      4   1   2     2.070031737865   112.42556531   151.33933774
 H      4   1   2     2.070048950709   112.42792514    30.51869693
 H      4   1   2     2.069063940417   112.35921103   270.93213110

---------------------
BASIS SET INFORMATION
---------------------
There are 3 groups of distinct atoms

 Group   1 Type Al  : 10s7p1d contracted to 4s3p1d pattern {5311/511/1}
 Group   2 Type C   : 7s4p1d contracted to 3s2p1d pattern {511/31/1}
 Group   3 Type H   : 4s1p contracted to 2s1p pattern {31/1}

Atom   0Al   basis set group =>   1
Atom   1C    basis set group =>   2
Atom   2C    basis set group =>   2
Atom   3C    basis set group =>   2
Atom   4H    basis set group =>   3
Atom   5H    basis set group =>   3
Atom   6H    basis set group =>   3
Atom   7H    basis set group =>   3
Atom   8H    basis set group =>   3
Atom   9H    basis set group =>   3
Atom  10H    basis set group =>   3
Atom  11H    basis set group =>   3
Atom  12H    basis set group =>   3
---------------------------------
AUXILIARY/J BASIS SET INFORMATION
---------------------------------
There are 3 groups of distinct atoms

 Group   1 Type Al  : 14s5p5d2f1g contracted to 8s4p3d1f1g pattern {71111111/2111/311/2/1}
 Group   2 Type C   : 12s5p4d2f1g contracted to 6s4p3d1f1g pattern {711111/2111/211/2/1}
 Group   3 Type H   : 5s2p1d contracted to 3s1p1d pattern {311/2/1}

Atom   0Al   basis set group =>   1
Atom   1C    basis set group =>   2
Atom   2C    basis set group =>   2
Atom   3C    basis set group =>   2
Atom   4H    basis set group =>   3
Atom   5H    basis set group =>   3
Atom   6H    basis set group =>   3
Atom   7H    basis set group =>   3
Atom   8H    basis set group =>   3
Atom   9H    basis set group =>   3
Atom  10H    basis set group =>   3
Atom  11H    basis set group =>   3
Atom  12H    basis set group =>   3
------------------------------------------------------------------------------
                             ORCA STARTUP CALCULATIONS
                           -- RI-GTO INTEGRALS CHOSEN --
------------------------------------------------------------------------------
------------------------------------------------------------------------------
                   ___                                                        
                  /   \      - P O W E R E D   B Y -                         
                 /     \                                                     
                 |  |  |   _    _      __       _____    __    __             
                 |  |  |  | |  | |    /  \     |  _  \  |  |  /  |          
                  \  \/   | |  | |   /    \    | | | |  |  | /  /          
                 / \  \   | |__| |  /  /\  \   | |_| |  |  |/  /          
                |  |  |   |  __  | /  /__\  \  |    /   |      \           
                |  |  |   | |  | | |   __   |  |    \   |  |\   \          
                \     /   | |  | | |  |  |  |  | |\  \  |  | \   \       
                 \___/    |_|  |_| |__|  |__|  |_| \__\ |__|  \__/        
                                                                              
                      - O R C A' S   B I G   F R I E N D -                    
                                      &                                       
                       - I N T E G R A L  F E E D E R -                       
                                                                              
 v1 FN, 2020, v2 2021, v3 2022-2024                                           
------------------------------------------------------------------------------


----------------------
SHARK INTEGRAL PACKAGE
----------------------

Number of atoms                             ...     13
Number of basis functions                   ...    105
Number of shells                            ...     53
Maximum angular momentum                    ...      2
Integral batch strategy                     ... SHARK/LIBINT Hybrid
RI-J (if used) integral strategy            ... SPLIT-RIJ (Revised 2003 algorithm where possible)
Printlevel                                  ...      1
Contraction scheme used                     ... SEGMENTED contraction
Prescreening option                         ... SCHWARTZ
   Thresh                                   ... 1.000e-10
   Tcut                                     ... 1.000e-11
   Tpresel                                  ... 1.000e-11 
Coulomb Range Separation                    ... NOT USED
Exchange Range Separation                   ... NOT USED
Multipole approximations                    ... NOT USED
Finite Nucleus Model                        ... NOT USED
CABS basis                                  ... NOT available
Auxiliary Coulomb fitting basis             ... AVAILABLE
   # of basis functions in Aux-J            ...    297
   # of shells in Aux-J                     ...    107
   Maximum angular momentum in Aux-J        ...      4
Auxiliary J/K fitting basis                 ... NOT available
Auxiliary Correlation fitting basis         ... NOT available
Auxiliary 'external' fitting basis          ... NOT available

Checking pre-screening integrals            ... done (  0.0 sec) Dimension = 53
   => SHARK Basis and OBASIS are compatible. Storing Pre-screening
Shell pair information
Shell pair cut-off parameter TPreSel        ...   1.0e-11
Total number of shell pairs                 ...      1431
Shell pairs after pre-screening             ...      1390
Total number of primitive shell pairs       ...      5039
Primitive shell pairs kept                  ...      3651
          la=0 lb=0:    484 shell pairs
          la=1 lb=0:    540 shell pairs
          la=1 lb=1:    162 shell pairs
          la=2 lb=0:    122 shell pairs
          la=2 lb=1:     72 shell pairs
          la=2 lb=2:     10 shell pairs

Checking whether 4 symmetric matrices of dimension 105 fit in memory
:Max Core in MB      =   3500.00
 MB in use           =      4.65
 MB left             =   3495.35
 MB needed           =      0.17
 Data fit in memory  = YES
Calculating RI/J V-Matrix + Cholesky decomp.... done (  0.0 sec)
Calculating Nuclear repulsion               ... done (  0.0 sec) ENN=    148.947369297924 Eh

Diagonalization of the overlap matrix:
Smallest eigenvalue                        ... 1.432e-02
Time for diagonalization                   ...    0.001 sec
Threshold for overlap eigenvalues          ... 1.000e-07
Number of eigenvalues below threshold      ... 0
Time for construction of square roots      ...    0.001 sec
Total time needed                          ...    0.003 sec

-------------------
DFT GRID GENERATION
-------------------

General Integration Accuracy     IntAcc      ... 4.388
Radial Grid Type                 RadialGrid  ... OptM3 with GC (2021)
Angular Grid (max. ang.)         AngularGrid ... 4 (Lebedev-302)
Angular grid pruning method      GridPruning ... 4 (adaptive)
Weight generation scheme         WeightScheme... mBecke (2022)
Basis function cutoff            BFCut       ... 1.0000e-10
Integration weight cutoff        WCut        ... 1.0000e-14
Partially contracted basis set               ... off
Rotationally invariant grid construction     ... off
Angular grids for H and He will be reduced by one unit

Total number of grid points                  ...    54740
Total number of batches                      ...      864
Average number of points per batch           ...       63
Average number of grid points per atom       ...     4211

--------------------
COSX GRID GENERATION
--------------------

GRIDX 1
-------
General Integration Accuracy     IntAcc      ... 3.816
Radial Grid Type                 RadialGrid  ... OptM3 with GC (2021)
Angular Grid (max. ang.)         AngularGrid ... 1 (Lebedev-50)
Angular grid pruning method      GridPruning ... 4 (adaptive)
Weight generation scheme         WeightScheme... mBecke (2022)
Basis function cutoff            BFCut       ... 1.0000e-10
Integration weight cutoff        WCut        ... 1.0000e-14
Partially contracted basis set               ... on
Rotationally invariant grid construction     ... off
Angular grids for H and He will be reduced by one unit

Total number of grid points                  ...     8099
Total number of batches                      ...       69
Average number of points per batch           ...      117
Average number of grid points per atom       ...      623
UseSFitting                                  ... on

GRIDX 2
-------
General Integration Accuracy     IntAcc      ... 4.020
Radial Grid Type                 RadialGrid  ... OptM3 with GC (2021)
Angular Grid (max. ang.)         AngularGrid ... 2 (Lebedev-110)
Angular grid pruning method      GridPruning ... 4 (adaptive)
Weight generation scheme         WeightScheme... mBecke (2022)
Basis function cutoff            BFCut       ... 1.0000e-10
Integration weight cutoff        WCut        ... 1.0000e-14
Partially contracted basis set               ... on
Rotationally invariant grid construction     ... off
Angular grids for H and He will be reduced by one unit

Total number of grid points                  ...    14448
Total number of batches                      ...      118
Average number of points per batch           ...      122
Average number of grid points per atom       ...     1111
UseSFitting                                  ... on

GRIDX 3
-------
General Integration Accuracy     IntAcc      ... 4.338
Radial Grid Type                 RadialGrid  ... OptM3 with GC (2021)
Angular Grid (max. ang.)         AngularGrid ... 3 (Lebedev-194)
Angular grid pruning method      GridPruning ... 4 (adaptive)
Weight generation scheme         WeightScheme... mBecke (2022)
Basis function cutoff            BFCut       ... 1.0000e-10
Integration weight cutoff        WCut        ... 1.0000e-14
Partially contracted basis set               ... on
Rotationally invariant grid construction     ... off
Angular grids for H and He will be reduced by one unit

Total number of grid points                  ...    32170
Total number of batches                      ...      258
Average number of points per batch           ...      124
Average number of grid points per atom       ...     2475
UseSFitting                                  ... on
Grids setup in   0.6 sec
Initializing property integral containers    ... done (  0.0 sec)

SHARK setup successfully completed in   0.6 seconds

Maximum memory used throughout the entire STARTUP-calculation: 21.7 MB
-------------------------------------------------------------------------------
                                 ORCA GUESS
                   Start orbitals & Density for SCF / CASSCF
-------------------------------------------------------------------------------

------------
SCF SETTINGS
------------
Hamiltonian:
 Density Functional     Method          .... DFT(GTOs)
 Exchange Functional    Exchange        .... TPSS
 Correlation Functional Correlation     .... TPSS
 LDA part of GGA corr.  LDAOpt          .... PW91-LDA
 Gradients option       PostSCFGGA      .... off
 Hybrid DFT is turned on
   Fraction HF Exchange ScalHFX         ....  0.100000
   Scaling of DF-GGA-X  ScalDFX         ....  0.900000
   Scaling of DF-GGA-C  ScalDFC         ....  1.000000
   Scaling of DF-LDA-C  ScalLDAC        ....  1.000000
   Perturbative correction              ....  0.000000
   NL short-range parameter             ....  5.200000
 RI-approximation to the Coulomb term is turned on
   Number of AuxJ basis functions       .... 297
   RIJ-COSX (HFX calculated with COS-X)).... on


General Settings:
 Integral files         IntName         .... 9
 Hartree-Fock type      HFTyp           .... RHF
 Total Charge           Charge          ....    0
 Multiplicity           Mult            ....    1
 Number of Electrons    NEL             ....   40
 Basis Dimension        Dim             ....  105
 Nuclear Repulsion      ENuc            ....    148.9473692979 Eh

Convergence Acceleration:
 AO-DIIS                CNVDIIS         .... on
   Start iteration      DIISMaxIt       ....    12
   Startup error        DIISStart       ....  0.200000
   # of expansion vecs  DIISMaxEq       ....     5
   Bias factor          DIISBfac        ....   1.050
   Max. coefficient     DIISMaxC        ....  10.000
 MO-DIIS                CNVKDIIS        .... off
 Trust-Rad. Augm. Hess. CNVTRAH         .... auto
   Auto Start mean grad. ratio tolernc. ....  1.125000
   Auto Start start iteration           ....    50
   Auto Start num. interpolation iter.  ....    10
   Max. Number of Micro iterations      ....    24
   Max. Number of Macro iterations      .... Maxiter - #DIIS iter
   Number of Davidson start vectors     ....     2
   Converg. threshold    (grad. norm)   ....   5.000e-05
   Grad. Scal. Fac. for Micro threshold ....   0.100
   Minimum threshold for Micro iter.    ....   1.000e-02
   NR start threshold (gradient norm)   ....   1.000e-04
   Initial trust radius                 ....   0.400
   Minimum AH scaling param. (alpha)    ....   1.000
   Maximum AH scaling param. (alpha)    .... 1000.000
   Quad. conv. algorithm                .... NR
   White noise on init. David. guess    .... on
   Maximum white noise                  ....   0.010
   Pseudo random numbers                .... off
   Inactive MOs                         .... canonical
   Orbital update algorithm             .... Taylor
   Preconditioner                       .... Diag
   Full preconditioner red. dimension   ....   250
 SOSCF                 CNVSOSCF           .... on
   Start iteration     SOSCFMaxIt         ....   150
   Startup grad/error  SOSCFStart         ....  0.003300
   Hessian update      SOSCFHessUp        .... L-BFGS
   Autom. constraints  SOSCFAutoConstrain .... off
 Level Shifting         CNVShift        .... on
   Level shift para.    LevelShift      ....    0.2500
   Turn off err/grad.   ShiftErr        ....    0.0010
 Zerner damping         CNVZerner       .... off
 Static damping         CNVDamp         .... on
   Fraction old density DampFac         ....    0.7000
   Max. Damping (<1)    DampMax         ....    0.9800
   Min. Damping (>=0)   DampMin         ....    0.0000
   Turn off err/grad.   DampErr         ....    0.1000

SCF Procedure:
 Maximum # iterations   MaxIter         ....   125
 SCF integral mode      SCFMode         .... Direct
   Integral package                     .... SHARK and LIBINT hybrid scheme
 Reset frequency        DirectResetFreq ....    20
 Integral Threshold     Thresh          ....  1.000e-10 Eh
 Primitive CutOff       TCut            ....  1.000e-11 Eh

Convergence Tolerance:
 Convergence Check Mode ConvCheckMode   .... Total+1el-Energy
 Convergence forced     ConvForced      .... 0
 Energy Change          TolE            ....  1.000e-06 Eh
 1-El. energy change                    ....  1.000e-03 Eh
 Orbital Gradient       TolG            ....  5.000e-05
 Orbital Rotation angle TolX            ....  5.000e-05
 DIIS Error             TolErr          ....  1.000e-05

------------------------------
INITIAL GUESS: MODEL POTENTIAL
------------------------------
Loading Hartree-Fock densities                     ... done
Calculating cut-offs                               ... done
Initializing the effective Hamiltonian             ... done
Setting up the integral package (SHARK)            ... done
Starting the Coulomb interaction                   ... done (   0.0 sec)
Making the grid                                    ... done (   0.1 sec)
Mapping shells                                     ... done
Starting the XC term evaluation                    ... done (   0.1 sec)
  promolecular density results
     # of electrons  =     39.993319947
     EX              =    -35.966570544
     EC              =     -1.295728593
     EX+EC           =    -37.262299138
Transforming the Hamiltonian                       ... done (   0.0 sec)
Diagonalizing the Hamiltonian                      ... done (   0.0 sec)
Back transforming the eigenvectors                 ... done (   0.0 sec)
Now organizing SCF variables                       ... done
                      ------------------
                      INITIAL GUESS DONE (   0.3 sec)
                      ------------------
             **** ENERGY FILE WAS UPDATED (9.en.tmp) ****
Finished Guess after   0.3 sec
Maximum memory used throughout the entire GUESS-calculation: 8.2 MB

-------------------------------------------------------------------------------------------
                                      ORCA LEAN-SCF
                              memory conserving SCF solver
-------------------------------------------------------------------------------------------

----------------------------------------D-I-I-S--------------------------------------------
Iteration    Energy (Eh)           Delta-E    RMSDP     MaxDP     DIISErr   Damp  Time(sec)
-------------------------------------------------------------------------------------------
               ***  Starting incremental Fock matrix formation  ***
    1    -361.7712884794950696     0.00e+00  5.08e-03  9.90e-02  2.23e-01  0.700   1.2
    2    -361.9051449694281928    -1.34e-01  3.69e-03  6.00e-02  1.12e-01  0.700   0.9
                               ***Turning on AO-DIIS***
    3    -361.9565961064671455    -5.15e-02  1.37e-03  1.64e-02  3.75e-02  0.700   0.9
    4    -361.9849900056808565    -2.84e-02  1.90e-03  2.31e-02  1.58e-02  0.000   0.8
    5    -362.0465704828427533    -6.16e-02  5.41e-04  1.06e-02  9.59e-03  0.000   0.8
                              *** Initializing SOSCF ***
---------------------------------------S-O-S-C-F--------------------------------------
Iteration    Energy (Eh)           Delta-E    RMSDP     MaxDP     MaxGrad    Time(sec)
--------------------------------------------------------------------------------------
    6    -362.0471462636724027    -5.76e-04  1.98e-04  2.26e-03  2.47e-03     0.8
               *** Restarting incremental Fock matrix formation ***
    7    -362.0471437585355261     2.51e-06  1.34e-04  2.21e-03  3.48e-04     1.1
    8    -362.0471447285705153    -9.70e-07  3.75e-05  7.49e-04  3.69e-04     0.9
                 **** Energy Check signals convergence ****

               *****************************************************
               *                     SUCCESS                       *
               *           SCF CONVERGED AFTER   8 CYCLES          *
               *****************************************************

Recomputing exchange energy using gridx3       ... done (    1.362 sec)
Old exchange energy                            :     -3.687743914 Eh
New exchange energy                            :     -3.687839586 Eh
Exchange energy change after final integration :     -0.000095673 Eh
Total energy after final integration           :   -362.047243828 Eh
             **** ENERGY FILE WAS UPDATED (9.en.tmp) ****

----------------
TOTAL SCF ENERGY
----------------

Total Energy       :       -362.04724382768080 Eh           -9851.80636 eV

Components:
Nuclear Repulsion  :        148.94736929792364 Eh            4053.06397 eV
Electronic Energy  :       -510.99451745310284 Eh          -13904.86773 eV
One Electron Energy:       -792.33680830000378 Eh          -21560.58067 eV
Two Electron Energy:        281.34229084690094 Eh            7655.71294 eV

Virial components:
Potential Energy   :       -721.59338497884903 Eh          -19635.55426 eV
Kinetic Energy     :        359.54614115116823 Eh            9783.74790 eV
Virial Ratio       :          2.00695627734595

DFT components:
N(Alpha)           :       20.000003493601 electrons
N(Beta)            :       20.000003493601 electrons
N(Total)           :       40.000006987201 electrons
E(X)               :      -33.311902101436 Eh       
E(C)               :       -1.325397778123 Eh       
E(XC)              :      -34.637299879559 Eh       

---------------
SCF CONVERGENCE
---------------

  Last Energy change         ...    9.7003e-07  Tolerance :   1.0000e-06
  Last MAX-Density change    ...    7.4911e-04  Tolerance :   1.0000e-05
  Last RMS-Density change    ...    3.7511e-05  Tolerance :   1.0000e-06
  Last DIIS Error            ...    2.4658e-03  Tolerance :   1.0000e-05
  Last Orbital Gradient      ...    3.6931e-04  Tolerance :   5.0000e-05
  Last Orbital Rotation      ...    2.5232e-04  Tolerance :   5.0000e-05


----------------
ORBITAL ENERGIES
----------------

  NO   OCC          E(Eh)            E(eV) 
   0   2.0000     -55.881946     -1520.6251 
   1   2.0000     -10.091167      -274.5946 
   2   2.0000     -10.091146      -274.5941 
   3   2.0000     -10.091102      -274.5929 
   4   2.0000      -4.054638      -110.3323 
   5   2.0000      -2.608252       -70.9741 
   6   2.0000      -2.597279       -70.6756 
   7   2.0000      -2.597278       -70.6755 
   8   2.0000      -0.648937       -17.6585 
   9   2.0000      -0.636851       -17.3296 
  10   2.0000      -0.636842       -17.3294 
  11   2.0000      -0.370087       -10.0706 
  12   2.0000      -0.369019       -10.0415 
  13   2.0000      -0.369015       -10.0414 
  14   2.0000      -0.361255        -9.8303 
  15   2.0000      -0.361249        -9.8301 
  16   2.0000      -0.353879        -9.6295 
  17   2.0000      -0.350164        -9.5285 
  18   2.0000      -0.252442        -6.8693 
  19   2.0000      -0.252436        -6.8691 
  20   0.0000      -0.029328        -0.7981 
  21   0.0000       0.016927         0.4606 
  22   0.0000       0.079632         2.1669 
  23   0.0000       0.079642         2.1672 
  24   0.0000       0.113954         3.1009 
  25   0.0000       0.121456         3.3050 
  26   0.0000       0.121460         3.3051 
  27   0.0000       0.145911         3.9704 
  28   0.0000       0.145926         3.9708 
  29   0.0000       0.149287         4.0623 
  30   0.0000       0.171155         4.6574 
*Only the first 10 virtual orbitals were printed.

                    ********************************
                    * MULLIKEN POPULATION ANALYSIS *
                    ********************************

-----------------------
MULLIKEN ATOMIC CHARGES
-----------------------
   0 Al:    0.797975
   1 C :   -0.404869
   2 C :   -0.404718
   3 C :   -0.405025
   4 H :    0.046065
   5 H :    0.046733
   6 H :    0.046060
   7 H :    0.046073
   8 H :    0.046695
   9 H :    0.046056
  10 H :    0.046111
  11 H :    0.046013
  12 H :    0.046830
Sum of atomic charges:   -0.0000000

--------------------------------
MULLIKEN REDUCED ORBITAL CHARGES
--------------------------------
  0 Als       :     4.948334  s :     4.948334
      pz      :     2.345443  p :     7.074392
      px      :     2.423160
      py      :     2.305790
      dz2     :     0.033046  d :     0.179299
      dxz     :     0.041042
      dyz     :     0.030999
      dx2y2   :     0.035063
      dxy     :     0.039149

  1 C s       :     3.176932  s :     3.176932
      pz      :     1.072046  p :     3.211347
      px      :     1.134930
      py      :     1.004372
      dz2     :     0.005361  d :     0.016590
      dxz     :     0.001729
      dyz     :     0.002229
      dx2y2   :     0.001216
      dxy     :     0.006055

  2 C s       :     3.176842  s :     3.176842
      pz      :     1.006295  p :     3.211287
      px      :     1.121841
      py      :     1.083151
      dz2     :     0.005153  d :     0.016588
      dxz     :     0.001384
      dyz     :     0.004275
      dx2y2   :     0.003577
      dxy     :     0.002199

  3 C s       :     3.176962  s :     3.176962
      pz      :     1.124297  p :     3.211472
      px      :     0.999518
      py      :     1.087657
      dz2     :     0.003617  d :     0.016591
      dxz     :     0.002542
      dyz     :     0.002344
      dx2y2   :     0.003082
      dxy     :     0.005006

  4 H s       :     0.929385  s :     0.929385
      pz      :     0.005468  p :     0.024550
      px      :     0.007470
      py      :     0.011611

  5 H s       :     0.927931  s :     0.927931
      pz      :     0.007132  p :     0.025336
      px      :     0.009537
      py      :     0.008667

  6 H s       :     0.929386  s :     0.929386
      pz      :     0.012075  p :     0.024554
      px      :     0.006920
      py      :     0.005559

  7 H s       :     0.929373  s :     0.929373
      pz      :     0.005678  p :     0.024554
      px      :     0.011399
      py      :     0.007477

  8 H s       :     0.927968  s :     0.927968
      pz      :     0.007435  p :     0.025337
      px      :     0.006606
      py      :     0.011296

  9 H s       :     0.929392  s :     0.929392
      pz      :     0.012693  p :     0.024552
      px      :     0.005952
      py      :     0.005906

 10 H s       :     0.929341  s :     0.929341
      pz      :     0.006166  p :     0.024548
      px      :     0.012283
      py      :     0.006099

 11 H s       :     0.929435  s :     0.929435
      pz      :     0.006582  p :     0.024552
      px      :     0.007361
      py      :     0.010610

 12 H s       :     0.927836  s :     0.927836
      pz      :     0.011317  p :     0.025334
      px      :     0.006361
      py      :     0.007657



                     *******************************
                     * LOEWDIN POPULATION ANALYSIS *
                     *******************************

----------------------
LOEWDIN ATOMIC CHARGES
----------------------
   0 Al:    0.695049
   1 C :   -0.327299
   2 C :   -0.327267
   3 C :   -0.327327
   4 H :    0.030373
   5 H :    0.034852
   6 H :    0.030383
   7 H :    0.030385
   8 H :    0.034848
   9 H :    0.030373
  10 H :    0.030373
  11 H :    0.030383
  12 H :    0.034874

-------------------------------
LOEWDIN REDUCED ORBITAL CHARGES
-------------------------------
  0 Als       :     4.750201  s :     4.750201
      pz      :     2.411194  p :     7.279228
      px      :     2.504420
      py      :     2.363615
      dz2     :     0.048681  d :     0.275522
      dxz     :     0.064749
      dyz     :     0.048245
      dx2y2   :     0.053602
      dxy     :     0.060245

  1 C s       :     2.908012  s :     2.908012
      pz      :     1.127565  p :     3.376905
      px      :     1.188352
      py      :     1.060988
      dz2     :     0.012929  d :     0.042382
      dxz     :     0.005612
      dyz     :     0.005565
      dx2y2   :     0.003786
      dxy     :     0.014490

  2 C s       :     2.908003  s :     2.908003
      pz      :     1.064433  p :     3.376883
      px      :     1.177398
      py      :     1.135052
      dz2     :     0.013435  d :     0.042382
      dxz     :     0.003375
      dyz     :     0.010462
      dx2y2   :     0.008288
      dxy     :     0.006822

  3 C s       :     2.908005  s :     2.908005
      pz      :     1.175335  p :     3.376941
      px      :     1.060298
      py      :     1.141309
      dz2     :     0.008811  d :     0.042380
      dxz     :     0.006056
      dyz     :     0.007193
      dx2y2   :     0.008051
      dxy     :     0.012269

  4 H s       :     0.899258  s :     0.899258
      pz      :     0.014963  p :     0.070369
      px      :     0.022853
      py      :     0.032553

  5 H s       :     0.894339  s :     0.894339
      pz      :     0.018577  p :     0.070809
      px      :     0.028523
      py      :     0.023709

  6 H s       :     0.899249  s :     0.899249
      pz      :     0.036785  p :     0.070368
      px      :     0.018750
      py      :     0.014833

  7 H s       :     0.899247  s :     0.899247
      pz      :     0.014937  p :     0.070368
      px      :     0.035609
      py      :     0.019822

  8 H s       :     0.894345  s :     0.894345
      pz      :     0.019542  p :     0.070807
      px      :     0.017555
      py      :     0.033709

  9 H s       :     0.899258  s :     0.899258
      pz      :     0.036635  p :     0.070369
      px      :     0.016841
      py      :     0.016893

 10 H s       :     0.899259  s :     0.899259
      pz      :     0.017957  p :     0.070368
      px      :     0.034897
      py      :     0.017514

 11 H s       :     0.899250  s :     0.899250
      pz      :     0.017842  p :     0.070367
      px      :     0.020147
      py      :     0.032378

 12 H s       :     0.894317  s :     0.894317
      pz      :     0.034307  p :     0.070809
      px      :     0.016358
      py      :     0.020144



                      *****************************
                      * MAYER POPULATION ANALYSIS *
                      *****************************

  NA   - Mulliken gross atomic population
  ZA   - Total nuclear charge
  QA   - Mulliken gross atomic charge
  VA   - Mayer's total valence
  BVA  - Mayer's bonded valence
  FA   - Mayer's free valence

  ATOM       NA         ZA         QA         VA         BVA        FA
  0 Al    12.2020    13.0000     0.7980     2.8903     2.8903    -0.0000
  1 C      6.4049     6.0000    -0.4049     3.8157     3.8157    -0.0000
  2 C      6.4047     6.0000    -0.4047     3.8158     3.8158    -0.0000
  3 C      6.4050     6.0000    -0.4050     3.8157     3.8157    -0.0000
  4 H      0.9539     1.0000     0.0461     0.9777     0.9777     0.0000
  5 H      0.9533     1.0000     0.0467     0.9840     0.9840     0.0000
  6 H      0.9539     1.0000     0.0461     0.9778     0.9778    -0.0000
  7 H      0.9539     1.0000     0.0461     0.9778     0.9778    -0.0000
  8 H      0.9533     1.0000     0.0467     0.9840     0.9840    -0.0000
  9 H      0.9539     1.0000     0.0461     0.9777     0.9777    -0.0000
 10 H      0.9539     1.0000     0.0461     0.9777     0.9777    -0.0000
 11 H      0.9540     1.0000     0.0460     0.9778     0.9778     0.0000
 12 H      0.9532     1.0000     0.0468     0.9840     0.9840    -0.0000

  Mayer bond orders larger than 0.100000
B(  0-Al,  1-C ) :   0.9142 B(  0-Al,  2-C ) :   0.9144 B(  0-Al,  3-C ) :   0.9142 
B(  1-C ,  4-H ) :   0.9600 B(  1-C ,  5-H ) :   0.9605 B(  1-C ,  6-H ) :   0.9599 
B(  2-C ,  7-H ) :   0.9599 B(  2-C ,  8-H ) :   0.9605 B(  2-C ,  9-H ) :   0.9599 
B(  3-C , 10-H ) :   0.9600 B(  3-C , 11-H ) :   0.9599 B(  3-C , 12-H ) :   0.9605 


-------
TIMINGS
-------

Total SCF time: 0 days 0 hours 0 min 9 sec 

Total time                  ....       9.632 sec
Sum of individual times     ....       8.815 sec  ( 91.5%)

SCF preparation             ....       0.055 sec  (  0.6%)
Fock matrix formation       ....       8.364 sec  ( 86.8%)
  Startup                   ....       0.003 sec  (  0.0% of F)
  Split-RI-J                ....       0.460 sec  (  5.5% of F)
  Chain of spheres X        ....       5.437 sec  ( 65.0% of F)
  XC integration            ....       3.128 sec  ( 37.4% of F)
    Basis function eval.    ....       0.610 sec  ( 19.5% of XC)
    Density eval.           ....       0.965 sec  ( 30.9% of XC)
    XC-Functional eval.     ....       0.341 sec  ( 10.9% of XC)
    XC-Potential eval.      ....       1.016 sec  ( 32.5% of XC)
Diagonalization             ....       0.000 sec  (  0.0%)
Density matrix formation    ....       0.114 sec  (  1.2%)
Total Energy calculation    ....       0.046 sec  (  0.5%)
Population analysis         ....       0.029 sec  (  0.3%)
Orbital Transformation      ....       0.017 sec  (  0.2%)
Orbital Orthonormalization  ....       0.000 sec  (  0.0%)
DIIS solution               ....       0.135 sec  (  1.4%)
SOSCF solution              ....       0.055 sec  (  0.6%)
Finished LeanSCF after   9.7 sec

Maximum memory used throughout the entire LEANSCF-calculation: 11.5 MB


-------------------------------------------------------------------------------
                          DFT DISPERSION CORRECTION                            
                                                                               
                              DFTD3 V3.1  Rev 1                                
                          USING Becke-Johnson damping                          
-------------------------------------------------------------------------------
The TPSSH functional is recognized
Active option DFTDOPT                   ...         4   

molecular C6(AA) [au] = 1658.728144 


            DFT-D V3
 parameters
 s6 scaling factor         :     1.0000 
 a1 scaling factor         :     0.4529 
 s8 scaling factor         :     2.2382 
 a2 scaling factor         :     4.6550 
 ad hoc parameters k1-k3   :    16.0000     1.3333    -4.0000 

 Edisp/kcal,au: -5.660527728287  -0.009020624163 
 E6   /kcal   :  -2.571418637 
 E8   /kcal   :  -3.089109091 
 % E8         :  54.572810859 

-------------------------   ----------------
Dispersion correction           -0.009020624
-------------------------   ----------------


-------------------------   --------------------
FINAL SINGLE POINT ENERGY      -362.056264451844
-------------------------   --------------------


------------------------------------------------------------------------------
                              ORCA PROPERTY CALCULATIONS
------------------------------------------------------------------------------

GBWName                                 ... 9.gbw
Number of atoms                         ...     13
Number of basis functions               ...    105
Max core memory                         ...   3500 MB

Electric properties:
Dipole moment                           ... YES
Quadrupole moment                       ...  NO
Static polarizability (Dipole/Dipole)   ...  NO
Static polarizability (Dipole/Quad.)    ...  NO
Static polarizability (Quad./Quad.)     ...  NO
Static polarizability (Velocity)        ...  NO
Static hyperpolarizability              ...  NO

Atomic electric properties:
Dipole moment                           ...  NO
Quadrupole moment                       ...  NO
Static polarizability                   ...  NO

Choice of electric origin               ... Center of mass
Position of electric origin             ...     5.419330     2.118720     3.029847

General magnetic properties:
Magnetizability                         ...  NO

EPR properties:
g-Tensor (aka g-matrix)                 ...  NO
Zero-Field splitting spin-orbit         ...  NO
Zero-field splitting spin-spin          ...  NO
Hyperfine couplings                     ...  NO (   0 nuclei)
Quadrupole couplings                    ...  NO (   0 nuclei)
Contact density                         ...  NO (   0 nuclei)

NMR properties:
Chemical shifts                         ...  NO (   0 nuclei)
Spin-rotation constants                 ...  NO (   0 nuclei)
Spin-spin couplings                     ...  NO (   0 nuclei,    0 pairs)

Choice of magnetic origin               ... GIAO
Position of magnetic origin             ...     0.000000     0.000000     0.000000

Properties with geometric perturbations:
SCF Hessian                             ...  NO
IR spectrum                             ...  NO
VCD spectrum                            ...  NO
X-ray spectroscopy properties:
SCF XES/XAS/RIXS spectra                ...  NO

SCF SOC stabilization energy            ...  NO
Diagonal Born-Oppenheimer correction    ...  NO

-------------
DIPOLE MOMENT
-------------

Method             : SCF
Type of density    : Electron Density
Multiplicity       :   1
Irrep              :   0
Energy             :  -362.0472438276808020 Eh
Basis              : AO
                                X                 Y                 Z
Electronic contribution:     -0.045889544       0.076541408      -0.067587170
Nuclear contribution   :      0.045812508      -0.076457665       0.067586632
                        -----------------------------------------
Total Dipole Moment    :     -0.000077036       0.000083743      -0.000000538
                        -----------------------------------------
Magnitude (a.u.)       :      0.000113788
Magnitude (Debye)      :      0.000289227



--------------------
Rotational spectrum 
--------------------
 
Rotational constants in cm-1:             0.160376             0.160368             0.083870 
Rotational constants in MHz :          4807.948418          4807.722209          2514.358656 

Dipole components along the rotational axes: 
x,y,z [a.u.] :     0.000016     0.000069    -0.000089 
x,y,z [Debye]:     0.000041     0.000175    -0.000226 

 

Dipole moment calculation done in   0.0 sec 

Maximum memory used throughout the entire PROP-calculation: 5.7 MB

--------------------------------
SUGGESTED CITATIONS FOR THIS RUN
--------------------------------

Below you find a list of papers that are relevant to this ORCA run
We neither can nor want to force you to cite these papers, but we appreciate if you do
You receive ORCA, which is the product of decades of hard work by many enthusiastic individuals, for free
The only thing we kindly ask in return is that you cite our papers,
We deeply appreciate it, if you show your appreciation for ORCA by not just citing the generic ORCA reference.

Please note that relegating all ORCA citations to the supporting information does *not* help us.
SI sections are not indexed - citations you put there will not count into any citation statistics
But we need these citations in order to attract the funding resources that allow us to do what we are doing

Therefore, if you are a happy ORCA user, please consider citing a few of the papers listed below in the main body of your paper

In addition to the list printed below, the program has created the file 9.bibtex that contains the list in bibtex format
You can import this file easily into all common literature databanks and citation aid programs


List of essential papers. We consider these as the minimum necessary citations

  1. Neese, F.
     Software update: the ORCA program system, version 6.0
     WIRES Comput. Molec. Sci. 2025 15(1), e70019
     doi.org/10.1002/wcms.7019

List of papers to cite with high priority. The work reported in these papers was absolutely
necessary for this run to complete.
Our perspective: the developers of density functionals and basis sets usually get cited in chemistry papers
Good! But without the algorithms to do something with them, the functionals or basis sets would not do anything.
Hence, in our opinion, the algorithm design and method developments papers are equally worthy of getting cited

  1. Neese, F.
     An improvement of the resolution of the identity approximation for the formation of the Coulomb matrix
     J. Comp. Chem. 2003 24(14), 1740-1747
     doi.org/10.1002/jcc.10318
  2. Neese, F.; Wennmohs, F.; Hansen, A.; Becker, U.
     Efficient, approximate and parallel Hartree-Fock and hybrid DFT calculations. A 'chain-of-spheres' algorithm for the Hartree-Fock exchange
     Chem. Phys. 2009 356(1-3), 98-109
     doi.org/10.1016/j.chemphys.2008.10.036
  3. Grimme, S.; Antony, J.; Ehrlich, S.; Krieg, H.
     A consistent and accurate ab initio parametrization of density functional dispersion correction (DFT-D) for the 94 elements H-Pu
     J. Chem. Phys. 2010 132 , 154104
     doi.org/10.1063/1.3382344
  4. Grimme, S.; Ehrlich, S.; Goerigk, L.
     Effect of the damping function in dispersion corrected density functional theory
     J. Comput. Chem. 2011 32(7), 1456-1465
     doi.org/10.1002/jcc.21759
  5. Helmich-Paris, B.; de Souza, B.; Neese, F.; Izsák, R.
     An improved chain of spheres for exchange algorithm
     J. Chem. Phys. 2021 155(10), 104109
     doi.org/10.1063/5.0058766
  6. Neese, F.
     The SHARK Integral Generation and Digestion System
     J. Comp. Chem. 2022 44(3), 381
     doi.org/10.1002/jcc.26942

List of suggested additional citations. These are papers that are important in the 'surrounding' of 
of this run, or papers that preceded the highly important papers. If you like your results we are grateful for a citation.

  1. Izsak, R.; Neese, F.
     An overlap fitted chain of spheres exchange method
     J. Chem. Phys. 2011 135 , 144105
     doi.org/10.1063/1.3646921
  2. Izsak, R.; Hansen, A.; Neese, F.
     The resolution of identity and chain of spheres approximations for the LPNO-CCSD singles Fock term
     Molec. Phys. 2012 110 , 2413-2417
     doi.org/10.1080/00268976.2012.687466
  3. Neese, F.
     The ORCA program system
     WIRES Comput. Molec. Sci. 2012 2(1), 73-78
     doi.org/10.1002/wcms.81
  4. Izsak, R.; Neese, F.; Klopper, W.
     Robust fitting techniques in the chain of spheres approximation to the Fock exchange: The role of the complementary space
     J. Chem. Phys. 2013 139 , 
     doi.org/10.1063/1.4819264
  5. Neese, F.
     Software update: the ORCA program system, version 4.0
     WIRES Comput. Molec. Sci. 2018 8(1), 1-6
     doi.org/10.1002/wcms.1327
  6. Neese, F.; Wennmohs, F.; Becker, U.; Riplinger, C.
     The ORCA quantum chemistry program package
     J. Chem. Phys. 2020 152(22), 224108
     doi.org/10.1063/5.0004608
  7. Neese, F.
     Software update: The ORCA program system—Version 5.0
     WIRES Comput. Molec. Sci. 2022 12(1), e1606
     doi.org/10.1002/wcms.1606

List of optional additional citations

  1. Neese, F.
     Approximate second-order SCF convergence for spin unrestricted wavefunctions
     Chem. Phys. Lett. 2000 325(1-3), 93-98
     doi.org/10.1016/s0009-2614(00)00662-x

Timings for individual modules:

Sum of individual times          ...       10.779 sec (=   0.180 min)
Startup calculation              ...        0.657 sec (=   0.011 min)   6.1 %
SCF iterations                   ...       10.068 sec (=   0.168 min)  93.4 %
Property calculations            ...        0.054 sec (=   0.001 min)   0.5 %
                             ****ORCA TERMINATED NORMALLY****
TOTAL RUN TIME: 0 days 0 hours 0 minutes 10 seconds 981 msec
